acidotricloroacetico                                                    
FOpt      RB3LYP                                                      6-31+G(d,p)         
Number of atoms                            I                8
Info1-9                                    I   N=           9
          15          15           0           0           0         110
           2          18        -502
Full Title                                 C   N=           2
acidotricloroacetico    
Route                                      C   N=           3
#n B3LYP/6-31+G(d,p) Opt Pop=NPA    
Charge                                     I                0
Multiplicity                               I                1
Number of electrons                        I               80
Number of alpha electrons                  I               40
Number of beta electrons                   I               40
Number of basis functions                  I              150
Number of independent functions            I              150
Number of point charges in /Mol/           I                0
Number of translation vectors              I                0
Atomic numbers                             I   N=           8
           6           6           8           8          17          17
          17           1
Nuclear charges                            R   N=           8
  6.00000000E+00  6.00000000E+00  8.00000000E+00  8.00000000E+00  1.70000000E+01
  1.70000000E+01  1.70000000E+01  1.00000000E+00
Current cartesian coordinates              R   N=          24
 -2.59787779E+00 -3.39021152E-01 -2.28168767E-04  3.67894772E-01 -2.83180104E-02
 -4.81041541E-06 -3.50212622E+00 -2.41527708E+00 -1.51688119E-04 -3.97905752E+00
  1.77349363E+00 -1.66504641E-04  1.57240504E+00 -1.51683345E+00  2.78146609E+00
  1.33384671E+00  3.27262641E+00  1.24098925E-04  1.57281226E+00 -1.51673481E+00
 -2.78135218E+00 -2.91472005E+00  3.27431397E+00 -1.02739463E-04
Number of symbols in /Mol/                 I                0
Force Field                                I                0
Atom Types                                 C   N=           8
                                                            
                                    
Int Atom Types                             I   N=           8
           0           0           0           0           0           0
           0           0
MM charges                                 R   N=           8
  0.00000000E+00  0.00000000E+00  0.00000000E+00  0.00000000E+00  0.00000000E+00
  0.00000000E+00  0.00000000E+00  0.00000000E+00
Integer atomic weights                     I   N=           8
          12          12          16          16          35          35
          35           1
Real atomic weights                        R   N=           8
  1.20000000E+01  1.20000000E+01  1.59949146E+01  1.59949146E+01  3.49688527E+01
  3.49688527E+01  3.49688527E+01  1.00782504E+00
Atom fragment info                         I   N=           8
           0           0           0           0           0           0
           0           0
Atom residue num                           I   N=           8
           0           0           0           0           0           0
           0           0
Nuclear spins                              I   N=           8
           0           0           0           0           3           3
           3           1
Nuclear ZEff                               R   N=           8
 -3.60000000E+00 -3.60000000E+00 -5.60000000E+00 -5.60000000E+00 -1.42400000E+01
 -1.42400000E+01 -1.42400000E+01 -1.00000000E+00
Nuclear ZNuc                               R   N=           8
  6.00000000E+00  6.00000000E+00  8.00000000E+00  8.00000000E+00  1.70000000E+01
  1.70000000E+01  1.70000000E+01  1.00000000E+00
Nuclear QMom                               R   N=           8
  0.00000000E+00  0.00000000E+00  0.00000000E+00  0.00000000E+00 -8.16500000E+00
 -8.16500000E+00 -8.16500000E+00  0.00000000E+00
Nuclear GFac                               R   N=           8
  0.00000000E+00  0.00000000E+00  0.00000000E+00  0.00000000E+00  8.21874000E-01
  8.21874000E-01  8.21874000E-01  2.79284600E+00
MicOpt                                     I   N=           8
          -1          -1          -1          -1          -1          -1
          -1          -1
Number of residues                         I                0
Number of secondary structures             I                0
Redundant internal dimensions              I   N=           4
          25           7          10           8
Redundant internal coordinate indices      I   N=         100
           1           2           0           0           1           3
           0           0           1           4           0           0
           2           5           0           0           2           6
           0           0           2           7           0           0
           4           8           0           0           2           1
           3           0           2           1           4           0
           3           1           4           0           1           2
           5           0           1           2           6           0
           1           2           7           0           5           2
           6           0           5           2           7           0
           6           2           7           0           1           4
           8           0           3           1           2           5
           3           1           2           6           3           1
           2           7           4           1           2           5
           4           1           2           6           4           1
           2           7           2           1           4           8
           3           1           4           8
Redundant internal coordinates             R   N=          25
  2.98200325E+00  2.26462004E+00  2.52396041E+00  3.37684817E+00  3.43937454E+00
  3.37684822E+00  1.83991194E+00  2.08592483E+00  2.04546188E+00  2.15179859E+00
  1.88482065E+00  1.95985927E+00  1.88482021E+00  1.89953461E+00  1.93570621E+00
  1.89953444E+00  1.94569073E+00 -1.04709558E+00 -3.14150164E+00  1.04727810E+00
  2.09434991E+00 -5.61556779E-05 -2.09446172E+00  6.91368147E-05  3.14150858E+00
ZRed-IntVec                                I   N=          25
           0           0           0           0           0           0
           0           0           0           0           0           0
           0           0           0           0           0           0
           0           0           0           0           0           0
           0
ZRed-FPVec                                 R   N=          25
  0.00000000E+00  0.00000000E+00  0.00000000E+00  0.00000000E+00  0.00000000E+00
  0.00000000E+00  0.00000000E+00  0.00000000E+00  0.00000000E+00  0.00000000E+00
  0.00000000E+00  0.00000000E+00  0.00000000E+00  0.00000000E+00  0.00000000E+00
  0.00000000E+00  0.00000000E+00  0.00000000E+00  0.00000000E+00  0.00000000E+00
  0.00000000E+00  0.00000000E+00  0.00000000E+00  0.00000000E+00  0.00000000E+00
ZRed-Constraint1                           R   N=          25
  2.86395880E+00  2.30798754E+00  2.55746364E+00  3.36681244E+00  3.37611979E+00
  3.36682844E+00  1.82403850E+00  2.07701579E+00  2.13453353E+00  2.07163599E+00
  1.90688670E+00  1.98941826E+00  1.90688740E+00  1.88145517E+00  1.89562578E+00
  1.88145238E+00  2.15307532E+00 -1.03580125E+00 -3.14159129E+00  1.03580705E+00
  2.10578740E+00 -2.64649825E-06 -2.10578962E+00  1.38820932E-06  3.14159004E+00
ZRed-Constraint2                           R   N=          25
  0.00000000E+00  0.00000000E+00  0.00000000E+00  0.00000000E+00  0.00000000E+00
  0.00000000E+00  0.00000000E+00  0.00000000E+00  0.00000000E+00  0.00000000E+00
  0.00000000E+00  0.00000000E+00  0.00000000E+00  0.00000000E+00  0.00000000E+00
  0.00000000E+00  0.00000000E+00  0.00000000E+00  0.00000000E+00  0.00000000E+00
  0.00000000E+00  0.00000000E+00  0.00000000E+00  0.00000000E+00  0.00000000E+00
SymInf integers                            I   N=          26
           1           1           1           1           1           0
           0           0           0           0           0           0
           0           0           0           0           0           0
           0           0           0           0           0           0
           0           0
RotTr to input orientation                 R   N=          12
  9.72366154E-01  4.18949558E-02  2.29671231E-01  5.40203631E-02 -9.97444333E-01
 -4.67611307E-02  2.27125212E-01  5.78758641E-02 -9.72144291E-01 -4.23374170E+00
  3.63019498E+00 -1.23271056E-01
Number of contracted shells                I               41
Number of primitive shells                 I              107
Pure/Cartesian d shells                    I                1
Pure/Cartesian f shells                    I                0
Highest angular momentum                   I                2
Largest degree of contraction              I                6
Shell types                                I   N=          41
           0          -1          -1          -1           2           0
          -1          -1          -1           2           0          -1
          -1          -1           2           0          -1          -1
          -1           2           0          -1          -1          -1
          -1           2           0          -1          -1          -1
          -1           2           0          -1          -1          -1
          -1           2           0           0           1
Number of primitives per shell             I   N=          41
           6           3           1           1           1           6
           3           1           1           1           6           3
           1           1           1           6           3           1
           1           1           6           6           3           1
           1           1           6           6           3           1
           1           1           6           6           3           1
           1           1           3           1           1
Shell to atom map                          I   N=          41
           1           1           1           1           1           2
           2           2           2           2           3           3
           3           3           3           4           4           4
           4           4           5           5           5           5
           5           5           6           6           6           6
           6           6           7           7           7           7
           7           7           8           8           8
Primitive exponents                        R   N=         107
  3.04752488E+03  4.57369518E+02  1.03948685E+02  2.92101553E+01  9.28666296E+00
  3.16392696E+00  7.86827235E+00  1.88128854E+00  5.44249258E-01  1.68714478E-01
  4.38000000E-02  8.00000000E-01  3.04752488E+03  4.57369518E+02  1.03948685E+02
  2.92101553E+01  9.28666296E+00  3.16392696E+00  7.86827235E+00  1.88128854E+00
  5.44249258E-01  1.68714478E-01  4.38000000E-02  8.00000000E-01  5.48467166E+03
  8.25234946E+02  1.88046958E+02  5.29645000E+01  1.68975704E+01  5.79963534E+00
  1.55396162E+01  3.59993359E+00  1.01376175E+00  2.70005823E-01  8.45000000E-02
  8.00000000E-01  5.48467166E+03  8.25234946E+02  1.88046958E+02  5.29645000E+01
  1.68975704E+01  5.79963534E+00  1.55396162E+01  3.59993359E+00  1.01376175E+00
  2.70005823E-01  8.45000000E-02  8.00000000E-01  2.51801000E+04  3.78035000E+03
  8.60474000E+02  2.42145000E+02  7.73349000E+01  2.62470000E+01  4.91765000E+02
  1.16984000E+02  3.74153000E+01  1.37834000E+01  5.45215000E+00  2.22588000E+00
  3.18649000E+00  1.14427000E+00  4.20377000E-01  1.42657000E-01  4.83000000E-02
  7.50000000E-01  2.51801000E+04  3.78035000E+03  8.60474000E+02  2.42145000E+02
  7.73349000E+01  2.62470000E+01  4.91765000E+02  1.16984000E+02  3.74153000E+01
  1.37834000E+01  5.45215000E+00  2.22588000E+00  3.18649000E+00  1.14427000E+00
  4.20377000E-01  1.42657000E-01  4.83000000E-02  7.50000000E-01  2.51801000E+04
  3.78035000E+03  8.60474000E+02  2.42145000E+02  7.73349000E+01  2.62470000E+01
  4.91765000E+02  1.16984000E+02  3.74153000E+01  1.37834000E+01  5.45215000E+00
  2.22588000E+00  3.18649000E+00  1.14427000E+00  4.20377000E-01  1.42657000E-01
  4.83000000E-02  7.50000000E-01  1.87311370E+01  2.82539436E+00  6.40121692E-01
  1.61277759E-01  1.10000000E+00
Contraction coefficients                   R   N=         107
  1.83473713E-03  1.40373228E-02  6.88426223E-02  2.32184443E-01  4.67941348E-01
  3.62311985E-01 -1.19332420E-01 -1.60854152E-01  1.14345644E+00  1.00000000E+00
  1.00000000E+00  1.00000000E+00  1.83473713E-03  1.40373228E-02  6.88426223E-02
  2.32184443E-01  4.67941348E-01  3.62311985E-01 -1.19332420E-01 -1.60854152E-01
  1.14345644E+00  1.00000000E+00  1.00000000E+00  1.00000000E+00  1.83107443E-03
  1.39501722E-02  6.84450781E-02  2.32714336E-01  4.70192898E-01  3.58520853E-01
 -1.10777550E-01 -1.48026263E-01  1.13076702E+00  1.00000000E+00  1.00000000E+00
  1.00000000E+00  1.83107443E-03  1.39501722E-02  6.84450781E-02  2.32714336E-01
  4.70192898E-01  3.58520853E-01 -1.10777550E-01 -1.48026263E-01  1.13076702E+00
  1.00000000E+00  1.00000000E+00  1.00000000E+00  1.83295985E-03  1.40341988E-02
  6.90973943E-02  2.37451980E-01  4.83033960E-01  3.39855972E-01 -2.29739142E-03
 -3.07137189E-02 -1.12528069E-01  4.50163278E-02  5.89353363E-01  4.65206287E-01
 -2.51828028E-01  6.15892514E-02  1.06018433E+00  1.00000000E+00  1.00000000E+00
  1.00000000E+00  1.83295985E-03  1.40341988E-02  6.90973943E-02  2.37451980E-01
  4.83033960E-01  3.39855972E-01 -2.29739142E-03 -3.07137189E-02 -1.12528069E-01
  4.50163278E-02  5.89353363E-01  4.65206287E-01 -2.51828028E-01  6.15892514E-02
  1.06018433E+00  1.00000000E+00  1.00000000E+00  1.00000000E+00  1.83295985E-03
  1.40341988E-02  6.90973943E-02  2.37451980E-01  4.83033960E-01  3.39855972E-01
 -2.29739142E-03 -3.07137189E-02 -1.12528069E-01  4.50163278E-02  5.89353363E-01
  4.65206287E-01 -2.51828028E-01  6.15892514E-02  1.06018433E+00  1.00000000E+00
  1.00000000E+00  1.00000000E+00  3.34946043E-02  2.34726953E-01  8.13757326E-01
  1.00000000E+00  1.00000000E+00
P(S=P) Contraction coefficients            R   N=         107
  0.00000000E+00  0.00000000E+00  0.00000000E+00  0.00000000E+00  0.00000000E+00
  0.00000000E+00  6.89990666E-02  3.16423961E-01  7.44308291E-01  1.00000000E+00
  1.00000000E+00  0.00000000E+00  0.00000000E+00  0.00000000E+00  0.00000000E+00
  0.00000000E+00  0.00000000E+00  0.00000000E+00  6.89990666E-02  3.16423961E-01
  7.44308291E-01  1.00000000E+00  1.00000000E+00  0.00000000E+00  0.00000000E+00
  0.00000000E+00  0.00000000E+00  0.00000000E+00  0.00000000E+00  0.00000000E+00
  7.08742682E-02  3.39752839E-01  7.27158577E-01  1.00000000E+00  1.00000000E+00
  0.00000000E+00  0.00000000E+00  0.00000000E+00  0.00000000E+00  0.00000000E+00
  0.00000000E+00  0.00000000E+00  7.08742682E-02  3.39752839E-01  7.27158577E-01
  1.00000000E+00  1.00000000E+00  0.00000000E+00  0.00000000E+00  0.00000000E+00
  0.00000000E+00  0.00000000E+00  0.00000000E+00  0.00000000E+00  3.98940088E-03
  3.03177067E-02  1.29880029E-01  3.27951072E-01  4.53527100E-01  2.52154056E-01
 -1.42993147E-02  3.23572333E-01  7.43507765E-01  1.00000000E+00  1.00000000E+00
  0.00000000E+00  0.00000000E+00  0.00000000E+00  0.00000000E+00  0.00000000E+00
  0.00000000E+00  0.00000000E+00  3.98940088E-03  3.03177067E-02  1.29880029E-01
  3.27951072E-01  4.53527100E-01  2.52154056E-01 -1.42993147E-02  3.23572333E-01
  7.43507765E-01  1.00000000E+00  1.00000000E+00  0.00000000E+00  0.00000000E+00
  0.00000000E+00  0.00000000E+00  0.00000000E+00  0.00000000E+00  0.00000000E+00
  3.98940088E-03  3.03177067E-02  1.29880029E-01  3.27951072E-01  4.53527100E-01
  2.52154056E-01 -1.42993147E-02  3.23572333E-01  7.43507765E-01  1.00000000E+00
  1.00000000E+00  0.00000000E+00  0.00000000E+00  0.00000000E+00  0.00000000E+00
  0.00000000E+00  0.00000000E+00
Coordinates of each shell                  R   N=         123
 -2.59787779E+00 -3.39021152E-01 -2.28168767E-04 -2.59787779E+00 -3.39021152E-01
 -2.28168767E-04 -2.59787779E+00 -3.39021152E-01 -2.28168767E-04 -2.59787779E+00
 -3.39021152E-01 -2.28168767E-04 -2.59787779E+00 -3.39021152E-01 -2.28168767E-04
  3.67894772E-01 -2.83180104E-02 -4.81041541E-06  3.67894772E-01 -2.83180104E-02
 -4.81041541E-06  3.67894772E-01 -2.83180104E-02 -4.81041541E-06  3.67894772E-01
 -2.83180104E-02 -4.81041541E-06  3.67894772E-01 -2.83180104E-02 -4.81041541E-06
 -3.50212622E+00 -2.41527708E+00 -1.51688119E-04 -3.50212622E+00 -2.41527708E+00
 -1.51688119E-04 -3.50212622E+00 -2.41527708E+00 -1.51688119E-04 -3.50212622E+00
 -2.41527708E+00 -1.51688119E-04 -3.50212622E+00 -2.41527708E+00 -1.51688119E-04
 -3.97905752E+00  1.77349363E+00 -1.66504641E-04 -3.97905752E+00  1.77349363E+00
 -1.66504641E-04 -3.97905752E+00  1.77349363E+00 -1.66504641E-04 -3.97905752E+00
  1.77349363E+00 -1.66504641E-04 -3.97905752E+00  1.77349363E+00 -1.66504641E-04
  1.57240504E+00 -1.51683345E+00  2.78146609E+00  1.57240504E+00 -1.51683345E+00
  2.78146609E+00  1.57240504E+00 -1.51683345E+00  2.78146609E+00  1.57240504E+00
 -1.51683345E+00  2.78146609E+00  1.57240504E+00 -1.51683345E+00  2.78146609E+00
  1.57240504E+00 -1.51683345E+00  2.78146609E+00  1.33384671E+00  3.27262641E+00
  1.24098925E-04  1.33384671E+00  3.27262641E+00  1.24098925E-04  1.33384671E+00
  3.27262641E+00  1.24098925E-04  1.33384671E+00  3.27262641E+00  1.24098925E-04
  1.33384671E+00  3.27262641E+00  1.24098925E-04  1.33384671E+00  3.27262641E+00
  1.24098925E-04  1.57281226E+00 -1.51673481E+00 -2.78135218E+00  1.57281226E+00
 -1.51673481E+00 -2.78135218E+00  1.57281226E+00 -1.51673481E+00 -2.78135218E+00
  1.57281226E+00 -1.51673481E+00 -2.78135218E+00  1.57281226E+00 -1.51673481E+00
 -2.78135218E+00  1.57281226E+00 -1.51673481E+00 -2.78135218E+00 -2.91472005E+00
  3.27431397E+00 -1.02739463E-04 -2.91472005E+00  3.27431397E+00 -1.02739463E-04
 -2.91472005E+00  3.27431397E+00 -1.02739463E-04
Num ILSW                                   I              100
ILSW                                       I   N=         100
           0           1           0           1           2           0
           0           0           0           0         402          -1
           5           0           0           0           2           0
           0           0           1           0           1           0
           1           0           0           0           0           0
           0           0      100000           0          -1           0
           0           0           0           0           0           0
           0           0           0           1           0           0
           0 -2000000000           1           0           0           0
           0           0           4          52           0           0
           0           0           5           0           0           0
           0           0           0           0           0           1
           0           0           0           0           0           0
           0           0           0           0           0           0
           0           0           0           0           0           0
           0           0           0           0           0           0
           0           0           0           0
Num RLSW                                   I               52
RLSW                                       R   N=          52
  8.00000000E-01  7.20000000E-01  1.00000000E+00  8.10000000E-01  2.00000000E-01
  0.00000000E+00  0.00000000E+00  1.00000000E+00  0.00000000E+00  0.00000000E+00
  0.00000000E+00  0.00000000E+00  1.00000000E+00  0.00000000E+00  0.00000000E+00
  0.00000000E+00  0.00000000E+00  1.00000000E+00  0.00000000E+00  0.00000000E+00
  0.00000000E+00  0.00000000E+00  1.00000000E+00  0.00000000E+00  0.00000000E+00
  0.00000000E+00  0.00000000E+00  1.00000000E+00  0.00000000E+00  0.00000000E+00
  0.00000000E+00  0.00000000E+00  1.00000000E+00  0.00000000E+00  0.00000000E+00
  0.00000000E+00  0.00000000E+00  0.00000000E+00  1.00000000E+00  1.00000000E+00
  0.00000000E+00  1.00000000E+00  0.00000000E+00  0.00000000E+00  0.00000000E+00
  0.00000000E+00  0.00000000E+00  0.00000000E+00  0.00000000E+00  0.00000000E+00
  0.00000000E+00  0.00000000E+00
MxBond                                     I                4
NBond                                      I   N=           8
           3           4           1           2           1           1
           1           1
IBond                                      I   N=          32
           2           3           4           0           1           5
           6           7           1           0           0           0
           1           8           0           0           2           0
           0           0           2           0           0           0
           2           0           0           0           4           0
           0           0
RBond                                      R   N=          32
  1.00000000E+00  2.00000000E+00  1.50000000E+00  0.00000000E+00  1.00000000E+00
  1.00000000E+00  1.00000000E+00  1.00000000E+00  2.00000000E+00  0.00000000E+00
  0.00000000E+00  0.00000000E+00  1.50000000E+00  1.00000000E+00  0.00000000E+00
  0.00000000E+00  1.00000000E+00  0.00000000E+00  0.00000000E+00  0.00000000E+00
  1.00000000E+00  0.00000000E+00  0.00000000E+00  0.00000000E+00  1.00000000E+00
  0.00000000E+00  0.00000000E+00  0.00000000E+00  1.00000000E+00  0.00000000E+00
  0.00000000E+00  0.00000000E+00
Virial Ratio                               R      2.003924131147239E+00
SCF Energy                                 R     -1.607842331243975E+03
Total Energy                               R     -1.607842331243975E+03
RMS Force                                  R      2.874215106636870E-04
RMS Density                                R      7.010480152172464E-09
Job Status                                 I                1
Nuclear derivative order                   I                1
External E-field                           R   N=          35
  0.00000000E+00  0.00000000E+00  0.00000000E+00  0.00000000E+00  0.00000000E+00
  0.00000000E+00  0.00000000E+00  0.00000000E+00  0.00000000E+00  0.00000000E+00
  0.00000000E+00  0.00000000E+00  0.00000000E+00  0.00000000E+00  0.00000000E+00
  0.00000000E+00  0.00000000E+00  0.00000000E+00  0.00000000E+00  0.00000000E+00
  0.00000000E+00  0.00000000E+00  0.00000000E+00  0.00000000E+00  0.00000000E+00
  0.00000000E+00  0.00000000E+00  0.00000000E+00  0.00000000E+00  0.00000000E+00
  0.00000000E+00  0.00000000E+00  0.00000000E+00  0.00000000E+00  0.00000000E+00
IOpCl                                      I                0
IROHF                                      I                0
Alpha Orbital Energies                     R   N=         150
 -1.01607556E+02 -1.01597150E+02 -1.01597149E+02 -1.92490270E+01 -1.91889850E+01
 -1.04125328E+01 -1.03808416E+01 -9.52370167E+00 -9.51270425E+00 -9.51270143E+00
 -7.28804805E+00 -7.27791783E+00 -7.27780743E+00 -7.27778916E+00 -7.27720683E+00
 -7.26637186E+00 -7.26637098E+00 -7.26611211E+00 -7.26611119E+00 -1.15686448E+00
 -1.07583167E+00 -9.73331861E-01 -8.74153422E-01 -8.69386462E-01 -7.21647701E-01
 -6.60917814E-01 -5.77252413E-01 -5.24589892E-01 -5.18410657E-01 -4.83298592E-01
 -4.71698355E-01 -4.44961944E-01 -3.91327267E-01 -3.90957334E-01 -3.75379531E-01
 -3.63435659E-01 -3.49110022E-01 -3.46442502E-01 -3.36753941E-01 -3.20671248E-01
 -7.71731596E-02 -7.34801421E-02 -4.20525953E-02 -1.23262721E-02  1.63164765E-02
  2.87973411E-02  3.74226681E-02  3.77867829E-02  6.50741495E-02  7.93125929E-02
  7.94537572E-02  8.25274038E-02  9.22871345E-02  9.33423938E-02  1.08344549E-01
  1.14959149E-01  1.18778025E-01  1.21231038E-01  1.23059923E-01  1.31806118E-01
  1.41997896E-01  1.50841513E-01  1.57926823E-01  1.61861709E-01  1.93237619E-01
  2.22628089E-01  2.47973214E-01  2.60978194E-01  2.68510767E-01  2.92788157E-01
  2.94047450E-01  3.09370471E-01  3.23542337E-01  3.38338833E-01  3.82139521E-01
  4.06872549E-01  5.13698713E-01  5.20291372E-01  5.34037527E-01  5.43695512E-01
  5.59669591E-01  5.65274658E-01  5.70264539E-01  5.78684456E-01  6.08403780E-01
  6.18994506E-01  6.25568138E-01  6.35166603E-01  6.52491400E-01  6.61423453E-01
  6.98909438E-01  7.24195558E-01  7.30734494E-01  7.50025477E-01  8.05432052E-01
  8.10174663E-01  8.18595911E-01  8.38744510E-01  8.39001095E-01  8.69616035E-01
  8.73487625E-01  8.76883950E-01  9.31423657E-01  9.96508556E-01  1.01218568E+00
  1.02770029E+00  1.06115780E+00  1.06451780E+00  1.12994354E+00  1.16285258E+00
  1.16630656E+00  1.19581463E+00  1.25831377E+00  1.26186697E+00  1.31052812E+00
  1.32738003E+00  1.36803609E+00  1.37497986E+00  1.46025405E+00  1.47805930E+00
  1.56366620E+00  1.59711473E+00  1.67597337E+00  1.70714646E+00  1.74896394E+00
  1.75932076E+00  1.85070920E+00  1.92157070E+00  1.96035447E+00  1.99263304E+00
  2.08325454E+00  2.08356766E+00  2.32239623E+00  2.32424094E+00  2.40587908E+00
  2.43574510E+00  2.56111221E+00  2.65500995E+00  2.75122050E+00  2.91406954E+00
  3.02837500E+00  3.19209586E+00  3.47712421E+00  4.01008492E+00  4.21262426E+00
  4.31369979E+00  4.32026633E+00  4.33768213E+00  4.39450402E+00  4.55558166E+00
Alpha MO coefficients                      R   N=       22500
 -3.56405594E-06  1.22933148E-05 -1.95147601E-06 -5.45782026E-07 -2.13595431E-09
 -1.16715538E-04 -1.82274033E-05  7.11801453E-05 -6.42004579E-09 -1.34022804E-04
  7.54128820E-06  3.65257106E-05 -8.59076143E-09 -2.74147886E-05 -2.79924002E-05
 -7.71286399E-06 -1.94633160E-05 -6.52664279E-10 -4.14550587E-11 -1.38544454E-05
  1.60970030E-05  1.29215891E-05  5.68799480E-05  1.33905876E-09  1.95357008E-04
  3.61693653E-06  2.37382937E-05  6.22178594E-09  1.40358320E-03 -3.98577591E-05
 -5.65724575E-05  4.52562084E-08 -1.88992366E-05 -3.52727881E-05 -2.23910729E-05
 -1.46041091E-06  2.41877753E-10 -5.44828488E-10 -3.85032653E-06 -1.67822085E-05
 -9.49665393E-07  2.36916004E-06 -2.32748455E-10  1.23880854E-04  2.95232391E-05
  5.84193013E-05 -1.36971099E-09 -1.74843185E-05 -1.80488527E-05 -4.05518655E-06
  1.37259485E-09 -1.38804313E-05  4.80862248E-06 -1.39283273E-05  9.26960896E-06
 -2.54743213E-10 -6.39173101E-10 -2.48000870E-06 -7.24488447E-07 -2.44759593E-06
  1.04121762E-06 -1.64204530E-10  2.06740331E-05 -3.03193269E-05 -3.30064278E-05
 -8.79940460E-10 -2.69044987E-04 -1.01813691E-04  2.58087551E-06 -3.92210873E-09
 -2.67759980E-05 -2.13302783E-06 -4.43523954E-06 -1.46654611E-05 -1.57193489E-09
 -8.10766278E-10 -5.79788825E-05 -3.47710226E-07 -2.11356324E-07  4.10755729E-06
 -2.70316798E-06  3.80551441E-05  1.71573383E-06 -1.79887848E-05  1.32977680E-05
 -8.80931752E-05  1.68582821E-05 -3.54671376E-05  3.78829715E-05 -3.92551699E-04
  6.15238846E-05 -2.56609782E-05  8.71981626E-05 -5.59350031E-06 -2.33414748E-05
 -1.35056882E-05  3.15924315E-06 -2.95864453E-07  1.45479057E-05  9.95997173E-01
  1.51540220E-02 -1.77641027E-05 -4.15748481E-05 -2.01909169E-09 -2.10553018E-02
  4.19435169E-06  2.01422523E-05  7.07977579E-10  1.80196709E-03  3.96274835E-05
  7.88235290E-05  2.68612660E-09 -6.23510741E-04  2.89485855E-05  7.35550897E-05
 -3.16950621E-09  7.52549062E-03  7.50838271E-03  7.53260200E-03 -8.89302353E-06
 -5.83786256E-10 -8.26841344E-10 -5.79806157E-05 -3.47973464E-07 -2.11765170E-07
  4.10741812E-06  2.70327839E-06  3.80546386E-05  1.71775383E-06 -1.79881203E-05
 -1.32981420E-05 -8.80858527E-05  1.68615267E-05 -3.54626465E-05 -3.78781716E-05
 -3.92482176E-04  6.15301369E-05 -2.56471249E-05 -8.71840231E-05 -5.59425135E-06
 -2.33407218E-05 -1.35067384E-05  3.16115375E-06  2.97022396E-07 -1.45474690E-05
 -1.62261729E-05  1.40046161E-04  8.25461537E-06 -1.81991176E-05  4.27689783E-10
 -2.13049048E-07  4.01623038E-06 -3.25683819E-06 -1.97610375E-06  1.26826576E-05
  1.17613357E-05 -6.94386719E-06 -4.88033043E-05  5.39710466E-06 -7.96959816E-05
 -1.09810269E-05 -8.85239400E-06 -4.56633570E-05 -5.12147874E-06 -1.48390562E-06
 -2.74918780E-06  2.28026961E-06  1.30402604E-05  8.35924580E-06 -2.55635272E-06
  4.54747695E-06  3.69716740E-06 -4.77097411E-06 -6.98897333E-05  3.78031406E-05
 -2.42454256E-09  8.92889130E-06 -1.94345319E-05  4.15409215E-04 -1.90284894E-05
 -3.23724880E-05  1.18563406E-04 -4.78002932E-06 -6.13977357E-06 -8.98167145E-06
 -7.16329720E-07  1.84954382E-05 -2.13333750E-05  1.70636704E-06  8.53887018E-06
  1.87178108E-06  7.75700510E-07 -2.06760423E-06 -4.90801767E-05 -1.58299541E-05
 -1.50572837E-05  1.65140681E-05 -4.19361238E-05 -1.01614045E-05 -3.51765143E-06
 -5.50232723E-06  2.67843969E-06  4.58269675E-06  5.85487470E-06 -2.16355318E-06
  1.21257092E-05  3.75337707E-06 -1.15594437E-06 -5.86893086E-06 -4.07090286E-07
  2.75004885E-07 -7.63213571E-07  3.54111728E-05  9.56361338E-06 -8.62501989E-06
 -3.92688165E-06 -2.21733877E-05 -1.32058969E-05  4.09557947E-06  9.74659993E-06
 -2.66730323E-06 -2.38993064E-06 -3.21845031E-06 -1.56304909E-06 -3.20029441E-07
  1.20939545E-06 -6.18826219E-01 -9.41163923E-03  1.08951832E-05 -1.37647024E-05
  2.07141968E-05  1.31168194E-02 -4.41571321E-06  4.36915591E-06  4.84433726E-06
 -1.22668531E-03 -3.16240747E-07  4.35941931E-06  1.00547485E-05  3.66571613E-05
  2.31858812E-05 -2.45024565E-05  1.47649832E-05 -4.67580944E-03 -4.67462864E-03
 -4.69056847E-03 -2.65474258E-06  2.18653033E-06 -2.86520177E-06  9.62050357E-06
  3.40957925E-07 -5.63762785E-08 -9.11264378E-07 -2.93953240E-06  6.50494566E-06
  5.71879221E-07  4.52170857E-06  1.18695619E-05 -2.39125882E-05  1.25538947E-06
  1.20240700E-05  1.61946681E-05 -5.94446795E-05  7.83760500E-06  1.51456628E-05
 -3.89523592E-05 -3.11115665E-07 -4.98528945E-06 -1.53823812E-06  3.03242208E-08