 Entering Gaussian System, Link 0=g16
 Input=acidotricloroacetico.com
 Output=acidotricloroacetico.log
 Initial command:
 /opt/g16/l1.exe "/home/montoya/Montoya/EfectoInductivo/Acidotricloroacetico/Gau-14231.inp" -scrdir="/home/montoya/Montoya/EfectoInductivo/Acidotricloroacetico/"
 Entering Link 1 = /opt/g16/l1.exe PID=     14233.
  
 Copyright (c) 1988-2017, Gaussian, Inc.  All Rights Reserved.
  
 This is part of the Gaussian(R) 16 program.  It is based on
 the Gaussian(R) 09 system (copyright 2009, Gaussian, Inc.),
 the Gaussian(R) 03 system (copyright 2003, Gaussian, Inc.),
 the Gaussian(R) 98 system (copyright 1998, Gaussian, Inc.),
 the Gaussian(R) 94 system (copyright 1995, Gaussian, Inc.),
 the Gaussian 92(TM) system (copyright 1992, Gaussian, Inc.),
 the Gaussian 90(TM) system (copyright 1990, Gaussian, Inc.),
 the Gaussian 88(TM) system (copyright 1988, Gaussian, Inc.),
 the Gaussian 86(TM) system (copyright 1986, Carnegie Mellon
 University), and the Gaussian 82(TM) system (copyright 1983,
 Carnegie Mellon University). Gaussian is a federally registered
 trademark of Gaussian, Inc.
  
 This software contains proprietary and confidential information,
 including trade secrets, belonging to Gaussian, Inc.
  
 This software is provided under written license and may be
 used, copied, transmitted, or stored only in accord with that
 written license.
  
 The following legend is applicable only to US Government
 contracts under FAR:
  
                    RESTRICTED RIGHTS LEGEND
  
 Use, reproduction and disclosure by the US Government is
 subject to restrictions as set forth in subparagraphs (a)
 and (c) of the Commercial Computer Software - Restricted
 Rights clause in FAR 52.227-19.
  
 Gaussian, Inc.
 340 Quinnipiac St., Bldg. 40, Wallingford CT 06492
  
  
 ---------------------------------------------------------------
 Warning -- This program may not be used in any manner that
 competes with the business of Gaussian, Inc. or will provide
 assistance to any competitor of Gaussian, Inc.  The licensee
 of this program is prohibited from giving any competitor of
 Gaussian, Inc. access to this program.  By using this program,
 the user acknowledges that Gaussian, Inc. is engaged in the
 business of creating and licensing software in the field of
 computational chemistry and represents and warrants to the
 licensee that it is not a competitor of Gaussian, Inc. and that
 it will not use this program in any manner prohibited above.
 ---------------------------------------------------------------
  

 Cite this work as:
 Gaussian 16, Revision B.01,
 M. J. Frisch, G. W. Trucks, H. B. Schlegel, G. E. Scuseria, 
 M. A. Robb, J. R. Cheeseman, G. Scalmani, V. Barone, 
 G. A. Petersson, H. Nakatsuji, X. Li, M. Caricato, A. V. Marenich, 
 J. Bloino, B. G. Janesko, R. Gomperts, B. Mennucci, H. P. Hratchian, 
 J. V. Ortiz, A. F. Izmaylov, J. L. Sonnenberg, D. Williams-Young, 
 F. Ding, F. Lipparini, F. Egidi, J. Goings, B. Peng, A. Petrone, 
 T. Henderson, D. Ranasinghe, V. G. Zakrzewski, J. Gao, N. Rega, 
 G. Zheng, W. Liang, M. Hada, M. Ehara, K. Toyota, R. Fukuda, 
 J. Hasegawa, M. Ishida, T. Nakajima, Y. Honda, O. Kitao, H. Nakai, 
 T. Vreven, K. Throssell, J. A. Montgomery, Jr., J. E. Peralta, 
 F. Ogliaro, M. J. Bearpark, J. J. Heyd, E. N. Brothers, K. N. Kudin, 
 V. N. Staroverov, T. A. Keith, R. Kobayashi, J. Normand, 
 K. Raghavachari, A. P. Rendell, J. C. Burant, S. S. Iyengar, 
 J. Tomasi, M. Cossi, J. M. Millam, M. Klene, C. Adamo, R. Cammi, 
 J. W. Ochterski, R. L. Martin, K. Morokuma, O. Farkas, 
 J. B. Foresman, and D. J. Fox, Gaussian, Inc., Wallingford CT, 2016.
 
 ******************************************
 Gaussian 16:  EM64L-G16RevB.01 20-Dec-2017
                18-Feb-2019 
 ******************************************
 %Chk=acidotricloroacetico.chk
 --------------------------------
 #n B3LYP/6-31+G(d,p) Opt Pop=NPA
 --------------------------------
 1/18=20,19=15,26=3,38=1/1,3;
 2/9=110,12=2,17=6,18=5,40=1/2;
 3/5=1,6=6,7=111,11=2,25=1,30=1,71=1,74=-5/1,2,3;
 4//1;
 5/5=2,38=5/2;
 6/7=2,8=2,9=2,10=2,28=1,40=-1/1,7;
 7//1,2,3,16;
 1/18=20,19=15,26=3/3(2);
 2/9=110/2;
 99//99;
 2/9=110/2;
 3/5=1,6=6,7=111,11=2,25=1,30=1,71=1,74=-5/1,2,3;
 4/5=5,16=3,69=1/1;
 5/5=2,38=5/2;
 7//1,2,3,16;
 1/18=20,19=15,26=3/3(-5);
 2/9=110/2;
 6/7=2,8=2,9=2,10=2,19=2,28=1,40=-1/1,7;
 99/9=1/99;
 --------------------
 acidotricloroacetico
 --------------------
 Symbolic Z-matrix:
 Charge =  0 Multiplicity = 1
 C                    -3.51969   2.01238  -0.3586 
 C                    -2.04408   1.95928  -0.0171 
 O                    -4.07383   3.09884  -0.42334 
 O                    -4.24784   0.8964   -0.59513 
 Cl                   -1.1254    2.87801  -1.2362 
 Cl                   -1.37128   0.30528   0.04156 
 Cl                   -1.78251   2.71049   1.57712 
 H                    -3.87901   0.00502  -0.56206 
 

 GradGradGradGradGradGradGradGradGradGradGradGradGradGradGradGradGradGrad
 Berny optimization.
 Initialization pass.
                           ----------------------------
                           !    Initial Parameters    !
                           ! (Angstroms and Degrees)  !
 --------------------------                            --------------------------
 ! Name  Definition              Value          Derivative Info.                !
 --------------------------------------------------------------------------------
 ! R1    R(1,2)                  1.5155         estimate D2E/DX2                !
 ! R2    R(1,3)                  1.2213         estimate D2E/DX2                !
 ! R3    R(1,4)                  1.3534         estimate D2E/DX2                !
 ! R4    R(2,5)                  1.7816         estimate D2E/DX2                !
 ! R5    R(2,6)                  1.7866         estimate D2E/DX2                !
 ! R6    R(2,7)                  1.7816         estimate D2E/DX2                !
 ! R7    R(4,8)                  0.9652         estimate D2E/DX2                !
 ! A1    A(2,1,3)              119.0042         estimate D2E/DX2                !
 ! A2    A(2,1,4)              122.2998         estimate D2E/DX2                !
 ! A3    A(3,1,4)              118.696          estimate D2E/DX2                !
 ! A4    A(1,2,5)              109.2566         estimate D2E/DX2                !
 ! A5    A(1,2,6)              113.9853         estimate D2E/DX2                !
 ! A6    A(1,2,7)              109.2566         estimate D2E/DX2                !
 ! A7    A(5,2,6)              107.7994         estimate D2E/DX2                !
 ! A8    A(5,2,7)              108.6114         estimate D2E/DX2                !
 ! A9    A(6,2,7)              107.7993         estimate D2E/DX2                !
 ! A10   A(1,4,8)              123.3621         estimate D2E/DX2                !
 ! D1    D(3,1,2,5)            -59.347          estimate D2E/DX2                !
 ! D2    D(3,1,2,6)           -179.9999         estimate D2E/DX2                !
 ! D3    D(3,1,2,7)             59.3474         estimate D2E/DX2                !
 ! D4    D(4,1,2,5)            120.6527         estimate D2E/DX2                !
 ! D5    D(4,1,2,6)             -0.0002         estimate D2E/DX2                !
 ! D6    D(4,1,2,7)           -120.6529         estimate D2E/DX2                !
 ! D7    D(2,1,4,8)              0.0001         estimate D2E/DX2                !
 ! D8    D(3,1,4,8)            179.9999         estimate D2E/DX2                !
 --------------------------------------------------------------------------------
 Trust Radius=3.00D-01 FncErr=1.00D-07 GrdErr=1.00D-06 EigMax=2.50D+02 EigMin=1.00D-04
 Number of steps in this run=     35 maximum allowed number of steps=    100.
 GradGradGradGradGradGradGradGradGradGradGradGradGradGradGradGradGradGrad

                          Input orientation:                          
 ---------------------------------------------------------------------
 Center     Atomic      Atomic             Coordinates (Angstroms)
 Number     Number       Type             X           Y           Z
 ---------------------------------------------------------------------
      1          6           0       -3.519690    2.012380   -0.358600
      2          6           0       -2.044080    1.959280   -0.017100
      3          8           0       -4.073830    3.098840   -0.423340
      4          8           0       -4.247840    0.896400   -0.595130
      5         17           0       -1.125400    2.878010   -1.236200
      6         17           0       -1.371280    0.305280    0.041560
      7         17           0       -1.782510    2.710490    1.577120
      8          1           0       -3.879010    0.005020   -0.562060
 ---------------------------------------------------------------------
                    Distance matrix (angstroms):
                    1          2          3          4          5
     1  C    0.000000
     2  C    1.515542   0.000000
     3  O    1.221334   2.362946   0.000000
     4  O    1.353351   2.514039   2.215972   0.000000
     5  Cl   2.692976   1.781640   3.066390   3.753316   0.000000
     6  Cl   2.773082   1.786566   3.914574   3.004895   2.883066
     7  Cl   2.692984   1.781649   3.066399   3.753324   2.893895
     8  H    2.049390   2.735522   3.103050   0.965240   4.036199
                    6          7          8
     6  Cl   0.000000
     7  Cl   2.883070   0.000000
     8  H    2.596772   4.036208   0.000000
 Stoichiometry    C2HCl3O2
 Framework group  C1[X(C2HCl3O2)]
 Deg. of freedom    18
 Full point group                 C1      NOp   1
 Largest Abelian subgroup         C1      NOp   1
 Largest concise Abelian subgroup C1      NOp   1
                         Standard orientation:                         
 ---------------------------------------------------------------------
 Center     Atomic      Atomic             Coordinates (Angstroms)
 Number     Number       Type             X           Y           Z
 ---------------------------------------------------------------------
      1          6           0       -1.327298   -0.237378   -0.000008
      2          6           0        0.167502    0.012502    0.000003
      3          8           0       -1.735270   -1.388558   -0.000005
      4          8           0       -2.229173    0.771672   -0.000016
      5         17           0        0.888419   -0.736399    1.446954
      6         17           0        0.614674    1.742200   -0.000001
      7         17           0        0.888445   -0.736410   -1.446940
      8          1           0       -1.981826    1.704681   -0.000017
 ---------------------------------------------------------------------
 Rotational constants (GHZ):           1.5124127           1.3729283           1.2344198
 Standard basis: 6-31+G(d,p) (6D, 7F)
 There are   150 symmetry adapted cartesian basis functions of A   symmetry.
 There are   150 symmetry adapted basis functions of A   symmetry.
   150 basis functions,   303 primitive gaussians,   150 cartesian basis functions
    40 alpha electrons       40 beta electrons
       nuclear repulsion energy       541.5688534081 Hartrees.
 NAtoms=    8 NActive=    8 NUniq=    8 SFac= 1.00D+00 NAtFMM=   60 NAOKFM=F Big=F
 Integral buffers will be    131072 words long.
 Raffenetti 2 integral format.
 Two-electron integral symmetry is turned on.
 One-electron integrals computed using PRISM.
 NBasis=   150 RedAO= T EigKep=  4.03D-05  NBF=   150
 NBsUse=   150 1.00D-06 EigRej= -1.00D+00 NBFU=   150
 ExpMin= 4.38D-02 ExpMax= 2.52D+04 ExpMxC= 3.78D+03 IAcc=3 IRadAn=         5 AccDes= 0.00D+00
 Harris functional with IExCor=  402 and IRadAn=       5 diagonalized for initial guess.
 HarFok:  IExCor=  402 AccDes= 0.00D+00 IRadAn=         5 IDoV= 1 UseB2=F ITyADJ=14
 ICtDFT=  3500011 ScaDFX=  1.000000  1.000000  1.000000  1.000000
 FoFCou: FMM=F IPFlag=           0 FMFlag=      100000 FMFlg1=           0
         NFxFlg=           0 DoJE=T BraDBF=F KetDBF=T FulRan=T
         wScrn=  0.000000 ICntrl=       500 IOpCl=  0 I1Cent=   200000004 NGrid=           0
         NMat0=    1 NMatS0=      1 NMatT0=    0 NMatD0=    1 NMtDS0=    0 NMtDT0=    0
 Petite list used in FoFCou.
 Keep R1 ints in memory in canonical form, NReq=65855697.
 Requested convergence on RMS density matrix=1.00D-08 within 128 cycles.
 Requested convergence on MAX density matrix=1.00D-06.
 Requested convergence on             energy=1.00D-06.
 No special actions if energy rises.
 SCF Done:  E(RB3LYP) =  -1607.83444557     A.U. after   14 cycles
            NFock= 14  Conv=0.24D-08     -V/T= 2.0039

 **********************************************************************

            Population analysis using the SCF Density.

 **********************************************************************

 Orbital symmetries:
       Occupied  (A) (A) (A) (A) (A) (A) (A) (A) (A) (A) (A) (A)
                 (A) (A) (A) (A) (A) (A) (A) (A) (A) (A) (A) (A)
                 (A) (A) (A) (A) (A) (A) (A) (A) (A) (A) (A) (A)
                 (A) (A) (A) (A)
       Virtual   (A) (A) (A) (A) (A) (A) (A) (A) (A) (A) (A) (A)
                 (A) (A) (A) (A) (A) (A) (A) (A) (A) (A) (A) (A)
                 (A) (A) (A) (A) (A) (A) (A) (A) (A) (A) (A) (A)
                 (A) (A) (A) (A) (A) (A) (A) (A) (A) (A) (A) (A)
                 (A) (A) (A) (A) (A) (A) (A) (A) (A) (A) (A) (A)
                 (A) (A) (A) (A) (A) (A) (A) (A) (A) (A) (A) (A)
                 (A) (A) (A) (A) (A) (A) (A) (A) (A) (A) (A) (A)
                 (A) (A) (A) (A) (A) (A) (A) (A) (A) (A) (A) (A)
                 (A) (A) (A) (A) (A) (A) (A) (A) (A) (A) (A) (A)
                 (A) (A)
 The electronic state is 1-A.
 Alpha  occ. eigenvalues -- -101.60230-101.59327-101.59327 -19.24655 -19.18733
 Alpha  occ. eigenvalues --  -10.40987 -10.38394  -9.51869  -9.50920  -9.50920
 Alpha  occ. eigenvalues --   -7.28323  -7.27434  -7.27432  -7.27261  -7.27225
 Alpha  occ. eigenvalues --   -7.26283  -7.26283  -7.26251  -7.26251  -1.14621
 Alpha  occ. eigenvalues --   -1.06256  -0.97963  -0.87155  -0.86674  -0.73792
 Alpha  occ. eigenvalues --   -0.67208  -0.57709  -0.52510  -0.51765  -0.47874
 Alpha  occ. eigenvalues --   -0.46519  -0.43261  -0.38812  -0.38481  -0.37278
 Alpha  occ. eigenvalues --   -0.35847  -0.34665  -0.34043  -0.33098  -0.32048
 Alpha virt. eigenvalues --   -0.08535  -0.06524  -0.03819  -0.01679   0.01861
 Alpha virt. eigenvalues --    0.02615   0.03825   0.04024   0.06259   0.07985
 Alpha virt. eigenvalues --    0.08009   0.08240   0.09441   0.10173   0.11197
 Alpha virt. eigenvalues --    0.11668   0.12136   0.12272   0.12501   0.13178
 Alpha virt. eigenvalues --    0.14652   0.15593   0.16068   0.16573   0.20211
 Alpha virt. eigenvalues --    0.21757   0.24944   0.25606   0.26915   0.29116
 Alpha virt. eigenvalues --    0.29572   0.31170   0.31715   0.34918   0.37482
 Alpha virt. eigenvalues --    0.39875   0.51067   0.51857   0.54157   0.54721
 Alpha virt. eigenvalues --    0.56533   0.56725   0.57145   0.58209   0.61504
 Alpha virt. eigenvalues --    0.62189   0.62266   0.62440   0.65009   0.65184
 Alpha virt. eigenvalues --    0.69717   0.72476   0.73584   0.75672   0.80699
 Alpha virt. eigenvalues --    0.81978   0.82236   0.84300   0.84454   0.87488
 Alpha virt. eigenvalues --    0.88708   0.89648   0.94094   0.99528   1.01302
 Alpha virt. eigenvalues --    1.02568   1.02725   1.06891   1.13771   1.16579
 Alpha virt. eigenvalues --    1.16991   1.20304   1.25945   1.26831   1.30742
 Alpha virt. eigenvalues --    1.34415   1.37044   1.38359   1.48281   1.50396
 Alpha virt. eigenvalues --    1.57544   1.58346   1.68204   1.72888   1.77244
 Alpha virt. eigenvalues --    1.77255   1.86444   1.91886   1.95461   1.98340
 Alpha virt. eigenvalues --    2.08760   2.10707   2.29204   2.30388   2.34621
 Alpha virt. eigenvalues --    2.48746   2.57072   2.64429   2.69272   2.96102
 Alpha virt. eigenvalues --    2.97732   3.11417   3.50598   4.02267   4.23504
 Alpha virt. eigenvalues --    4.31750   4.33905   4.34481   4.38051   4.55507
          Condensed to atoms (all electrons):
               1          2          3          4          5          6
     1  C    5.437728  -0.691341   0.549188   0.082619   0.060797   0.091893
     2  C   -0.691341   7.864386  -0.305407  -0.033412  -0.115872  -0.307212
     3  O    0.549188  -0.305407   8.155749  -0.126753  -0.004041   0.040546
     4  O    0.082619  -0.033412  -0.126753   8.279859  -0.023647   0.053612
     5  Cl   0.060797  -0.115872  -0.004041  -0.023647  17.135833  -0.043370
     6  Cl   0.091893  -0.307212   0.040546   0.053612  -0.043370  17.187928
     7  Cl   0.060791  -0.115851  -0.004042  -0.023646  -0.138773  -0.043372
     8  H    0.069800  -0.067631   0.011747   0.200873   0.004811   0.020807
               7          8
     1  C    0.060791   0.069800
     2  C   -0.115851  -0.067631
     3  O   -0.004042   0.011747
     4  O   -0.023646   0.200873
     5  Cl  -0.138773   0.004811
     6  Cl  -0.043372   0.020807
     7  Cl  17.135826   0.004811
     8  H    0.004811   0.386843
 Mulliken charges:
               1
     1  C    0.338525
     2  C   -0.227661
     3  O   -0.316987
     4  O   -0.409505
     5  Cl   0.124262
     6  Cl  -0.000831
     7  Cl   0.124257
     8  H    0.367940
 Sum of Mulliken charges =  -0.00000
 Mulliken charges with hydrogens summed into heavy atoms:
               1
     1  C    0.338525
     2  C   -0.227661
     3  O   -0.316987
     4  O   -0.041565
     5  Cl   0.124262
     6  Cl  -0.000831
     7  Cl   0.124257
 Electronic spatial extent (au):  <R**2>=           1123.1647
 Charge=             -0.0000 electrons
 Dipole moment (field-independent basis, Debye):
    X=              0.9537    Y=              3.1158    Z=              0.0000  Tot=              3.2585
 Quadrupole moment (field-independent basis, Debye-Ang):
   XX=            -64.9322   YY=            -58.9843   ZZ=            -59.0570
   XY=             -6.7459   XZ=              0.0000   YZ=             -0.0001
 Traceless Quadrupole moment (field-independent basis, Debye-Ang):
   XX=             -3.9411   YY=              2.0069   ZZ=              1.9342
   XY=             -6.7459   XZ=              0.0000   YZ=             -0.0001
 Octapole moment (field-independent basis, Debye-Ang**2):
  XXX=             11.9126  YYY=             18.5715  ZZZ=              0.0002  XYY=             -1.8850
  XXY=             10.8648  XXZ=              0.0000  XZZ=              1.8028  YZZ=             -4.5887
  YYZ=             -0.0001  XYZ=              0.0001
 Hexadecapole moment (field-independent basis, Debye-Ang**3):
 XXXX=           -590.5127 YYYY=           -440.7905 ZZZZ=           -360.2477 XXXY=            -23.7294
 XXXZ=             -0.0003 YYYX=            -25.7246 YYYZ=             -0.0003 ZZZX=              0.0002
 ZZZY=             -0.0002 XXYY=           -158.4632 XXZZ=           -147.3086 YYZZ=           -136.8714
 XXYZ=             -0.0000 YYXZ=              0.0001 ZZXY=             -7.8320
 N-N= 5.415688534081D+02 E-N=-4.895131475713D+03  KE= 1.601570211255D+03
 ******************************Gaussian NBO Version 3.1******************************
             N A T U R A L   A T O M I C   O R B I T A L   A N D
          N A T U R A L   B O N D   O R B I T A L   A N A L Y S I S
 ******************************Gaussian NBO Version 3.1******************************
       /RESON  / : Allow strongly delocalized NBO set

 Analyzing the SCF density

 Job title: acidotricloroacetico                                            

 Storage needed:     68262 in NPA ( 104857200 available)
 GSVD:  LWork=       12708 too small for GESVD, short by        6264 words or        6264 for optimal perf.


 NATURAL POPULATIONS:  Natural atomic orbital occupancies 
                                                          
   NAO  Atom  No  lang   Type(AO)    Occupancy      Energy
 ----------------------------------------------------------
     1    C    1  S      Cor( 1S)     1.99903     -10.26406
     2    C    1  S      Val( 2S)     0.78423      -0.23679
     3    C    1  S      Ryd( 3S)     0.00488       1.21429
     4    C    1  S      Ryd( 5S)     0.00060       2.51055
     5    C    1  S      Ryd( 4S)     0.00042       1.57095
     6    C    1  px     Val( 2p)     0.87872      -0.11528
     7    C    1  px     Ryd( 4p)     0.01063       0.76432
     8    C    1  px     Ryd( 3p)     0.00087       0.31642
     9    C    1  py     Val( 2p)     0.73569      -0.06584
    10    C    1  py     Ryd( 4p)     0.01545       0.64705
    11    C    1  py     Ryd( 3p)     0.00033       0.28912
    12    C    1  pz     Val( 2p)     0.79060      -0.18488
    13    C    1  pz     Ryd( 4p)     0.00405       0.57776
    14    C    1  pz     Ryd( 3p)     0.00036       0.20730
    15    C    1  dxy    Ryd( 3d)     0.00352       2.49263
    16    C    1  dxz    Ryd( 3d)     0.00072       1.90144
    17    C    1  dyz    Ryd( 3d)     0.00237       2.16537
    18    C    1  dx2y2  Ryd( 3d)     0.00273       2.54774
    19    C    1  dz2    Ryd( 3d)     0.00051       2.26943

    20    C    2  S      Cor( 1S)     1.99910     -10.32148
    21    C    2  S      Val( 2S)     1.15766      -0.51625
    22    C    2  S      Ryd( 4S)     0.00158       1.21354
    23    C    2  S      Ryd( 3S)     0.00048       0.69067
    24    C    2  S      Ryd( 5S)     0.00008       3.79250
    25    C    2  px     Val( 2p)     1.09973      -0.28241
    26    C    2  px     Ryd( 4p)     0.01022       0.53103
    27    C    2  px     Ryd( 3p)     0.00043       0.33616
    28    C    2  py     Val( 2p)     0.97602      -0.31425
    29    C    2  py     Ryd( 4p)     0.01034       0.69468
    30    C    2  py     Ryd( 3p)     0.00045       0.36325
    31    C    2  pz     Val( 2p)     0.99690      -0.32027
    32    C    2  pz     Ryd( 4p)     0.00913       0.61329
    33    C    2  pz     Ryd( 3p)     0.00098       0.32193
    34    C    2  dxy    Ryd( 3d)     0.00158       1.98603
    35    C    2  dxz    Ryd( 3d)     0.00224       1.78520
    36    C    2  dyz    Ryd( 3d)     0.00303       1.76927
    37    C    2  dx2y2  Ryd( 3d)     0.00243       2.07001
    38    C    2  dz2    Ryd( 3d)     0.00298       1.90081

    39    O    3  S      Cor( 1S)     1.99978     -18.91650
    40    O    3  S      Val( 2S)     1.71371      -0.94314
    41    O    3  S      Ryd( 3S)     0.00361       0.96057
    42    O    3  S      Ryd( 4S)     0.00024       1.76742
    43    O    3  S      Ryd( 5S)     0.00015       3.48004
    44    O    3  px     Val( 2p)     1.79571      -0.29855
    45    O    3  px     Ryd( 3p)     0.00311       0.75734
    46    O    3  px     Ryd( 4p)     0.00008       0.93832
    47    O    3  py     Val( 2p)     1.58607      -0.33052
    48    O    3  py     Ryd( 3p)     0.00056       0.82790
    49    O    3  py     Ryd( 4p)     0.00008       0.96222
    50    O    3  pz     Val( 2p)     1.40474      -0.28259
    51    O    3  pz     Ryd( 3p)     0.00098       0.68012
    52    O    3  pz     Ryd( 4p)     0.00001       0.79791
    53    O    3  dxy    Ryd( 3d)     0.00521       2.08007
    54    O    3  dxz    Ryd( 3d)     0.00078       1.77985
    55    O    3  dyz    Ryd( 3d)     0.00420       1.82538
    56    O    3  dx2y2  Ryd( 3d)     0.00568       2.14258
    57    O    3  dz2    Ryd( 3d)     0.00172       1.96871

    58    O    4  S      Cor( 1S)     1.99974     -19.05629
    59    O    4  S      Val( 2S)     1.66047      -0.95472
    60    O    4  S      Ryd( 3S)     0.00349       0.93767
    61    O    4  S      Ryd( 4S)     0.00037       1.23344
    62    O    4  S      Ryd( 5S)     0.00004       3.95230
    63    O    4  px     Val( 2p)     1.73613      -0.38623
    64    O    4  px     Ryd( 3p)     0.00244       0.56478
    65    O    4  px     Ryd( 4p)     0.00014       0.97417
    66    O    4  py     Val( 2p)     1.48673      -0.37786
    67    O    4  py     Ryd( 3p)     0.00397       0.84453
    68    O    4  py     Ryd( 4p)     0.00042       1.01290
    69    O    4  pz     Val( 2p)     1.80503      -0.37535
    70    O    4  pz     Ryd( 3p)     0.00231       0.45316
    71    O    4  pz     Ryd( 4p)     0.00012       0.92423
    72    O    4  dxy    Ryd( 3d)     0.00137       2.60095
    73    O    4  dxz    Ryd( 3d)     0.00220       1.82819
    74    O    4  dyz    Ryd( 3d)     0.00012       1.95251
    75    O    4  dx2y2  Ryd( 3d)     0.00162       2.42039
    76    O    4  dz2    Ryd( 3d)     0.00078       2.23969

    77   Cl    5  S      Cor( 1S)     2.00000    -100.23753
    78   Cl    5  S      Cor( 2S)     1.99973     -10.53068
    79   Cl    5  S      Val( 3S)     1.85978      -1.06268
    80   Cl    5  S      Ryd( 5S)     0.00382       0.52504
    81   Cl    5  S      Ryd( 4S)     0.00040       0.47406
    82   Cl    5  S      Ryd( 6S)     0.00002       4.24159
    83   Cl    5  px     Cor( 2p)     1.99997      -7.25983
    84   Cl    5  px     Val( 3p)     1.80974      -0.34883
    85   Cl    5  px     Ryd( 5p)     0.00187       0.49738
    86   Cl    5  px     Ryd( 4p)     0.00013       0.27018
    87   Cl    5  py     Cor( 2p)     1.99997      -7.25970
    88   Cl    5  py     Val( 3p)     1.80668      -0.34791
    89   Cl    5  py     Ryd( 5p)     0.00245       0.48567
    90   Cl    5  py     Ryd( 4p)     0.00008       0.25531
    91   Cl    5  pz     Cor( 2p)     1.99991      -7.26421
    92   Cl    5  pz     Val( 3p)     1.41946      -0.32541
    93   Cl    5  pz     Ryd( 5p)     0.00375       0.46371
    94   Cl    5  pz     Ryd( 4p)     0.00007       0.25500
    95   Cl    5  dxy    Ryd( 3d)     0.00092       0.89913
    96   Cl    5  dxz    Ryd( 3d)     0.00233       0.99768
    97   Cl    5  dyz    Ryd( 3d)     0.00248       0.98416
    98   Cl    5  dx2y2  Ryd( 3d)     0.00067       0.87875
    99   Cl    5  dz2    Ryd( 3d)     0.00217       1.02360

   100   Cl    6  S      Cor( 1S)     2.00000    -100.24090
   101   Cl    6  S      Cor( 2S)     1.99974     -10.54642
   102   Cl    6  S      Val( 3S)     1.85899      -1.07428
   103   Cl    6  S      Ryd( 5S)     0.00357       0.56439
   104   Cl    6  S      Ryd( 4S)     0.00040       0.49389
   105   Cl    6  S      Ryd( 6S)     0.00001       4.17072
   106   Cl    6  px     Cor( 2p)     1.99998      -7.26831
   107   Cl    6  px     Val( 3p)     1.90365      -0.36892
   108   Cl    6  px     Ryd( 5p)     0.00208       0.49895
   109   Cl    6  px     Ryd( 4p)     0.00016       0.24822
   110   Cl    6  py     Cor( 2p)     1.99988      -7.27554
   111   Cl    6  py     Val( 3p)     1.22968      -0.32547
   112   Cl    6  py     Ryd( 5p)     0.00455       0.42917
   113   Cl    6  py     Ryd( 4p)     0.00013       0.27492
   114   Cl    6  pz     Cor( 2p)     1.99999      -7.26743
   115   Cl    6  pz     Val( 3p)     1.95002      -0.36910
   116   Cl    6  pz     Ryd( 5p)     0.00201       0.46925
   117   Cl    6  pz     Ryd( 4p)     0.00016       0.23618
   118   Cl    6  dxy    Ryd( 3d)     0.00210       0.98181
   119   Cl    6  dxz    Ryd( 3d)     0.00023       0.83798
   120   Cl    6  dyz    Ryd( 3d)     0.00134       0.92174
   121   Cl    6  dx2y2  Ryd( 3d)     0.00333       1.05854
   122   Cl    6  dz2    Ryd( 3d)     0.00157       0.91262

   123   Cl    7  S      Cor( 1S)     2.00000    -100.23753
   124   Cl    7  S      Cor( 2S)     1.99973     -10.53068
   125   Cl    7  S      Val( 3S)     1.85978      -1.06268
   126   Cl    7  S      Ryd( 5S)     0.00382       0.52504
   127   Cl    7  S      Ryd( 4S)     0.00040       0.47406
   128   Cl    7  S      Ryd( 6S)     0.00002       4.24160
   129   Cl    7  px     Cor( 2p)     1.99997      -7.25983
   130   Cl    7  px     Val( 3p)     1.80973      -0.34883
   131   Cl    7  px     Ryd( 5p)     0.00187       0.49738
   132   Cl    7  px     Ryd( 4p)     0.00013       0.27018
   133   Cl    7  py     Cor( 2p)     1.99997      -7.25970
   134   Cl    7  py     Val( 3p)     1.80668      -0.34791
   135   Cl    7  py     Ryd( 5p)     0.00245       0.48567
   136   Cl    7  py     Ryd( 4p)     0.00008       0.25531
   137   Cl    7  pz     Cor( 2p)     1.99991      -7.26420
   138   Cl    7  pz     Val( 3p)     1.41947      -0.32541
   139   Cl    7  pz     Ryd( 5p)     0.00375       0.46371
   140   Cl    7  pz     Ryd( 4p)     0.00007       0.25500
   141   Cl    7  dxy    Ryd( 3d)     0.00092       0.89913
   142   Cl    7  dxz    Ryd( 3d)     0.00233       0.99768
   143   Cl    7  dyz    Ryd( 3d)     0.00248       0.98416
   144   Cl    7  dx2y2  Ryd( 3d)     0.00067       0.87875
   145   Cl    7  dz2    Ryd( 3d)     0.00217       1.02360

   146    H    8  S      Val( 1S)     0.45405       0.10069
   147    H    8  S      Ryd( 2S)     0.00198       0.57985
   148    H    8  px     Ryd( 2p)     0.00063       2.39725
   149    H    8  py     Ryd( 2p)     0.00122       3.04018
   150    H    8  pz     Ryd( 2p)     0.00076       2.22591

 WARNING:  Population inversion found on atom  C    1
           Population inversion found on atom  C    2
           Population inversion found on atom Cl    5
           Population inversion found on atom Cl    6
           Population inversion found on atom Cl    7


 Summary of Natural Population Analysis:                  
                                                          
                                       Natural Population 
                Natural  -----------------------------------------------
    Atom  No    Charge         Core      Valence    Rydberg      Total
 -----------------------------------------------------------------------
      C    1    0.76429      1.99903     3.18923    0.04745     5.23571
      C    2   -0.27536      1.99910     4.23032    0.04594     6.27536
      O    3   -0.52643      1.99978     6.50022    0.02642     8.52643
      O    4   -0.70750      1.99974     6.68837    0.01939     8.70750
     Cl    5    0.08361      9.99958     6.89566    0.02115    16.91639
     Cl    6    0.03642      9.99960     6.94234    0.02164    16.96358
     Cl    7    0.08360      9.99958     6.89567    0.02115    16.91640
      H    8    0.54136      0.00000     0.45405    0.00459     0.45864
 =======================================================================
   * Total *    0.00000     37.99640    41.79586    0.20774    80.00000

                                 Natural Population      
 --------------------------------------------------------
   Core                      37.99640 ( 99.9905% of  38)
   Valence                   41.79586 ( 99.5139% of  42)
   Natural Minimal Basis     79.79226 ( 99.7403% of  80)
   Natural Rydberg Basis      0.20774 (  0.2597% of  80)
 --------------------------------------------------------

    Atom  No          Natural Electron Configuration
 ----------------------------------------------------------------------------
      C    1      [core]2S( 0.78)2p( 2.41)3d( 0.01)4p( 0.03)
      C    2      [core]2S( 1.16)2p( 3.07)3d( 0.01)4p( 0.03)
      O    3      [core]2S( 1.71)2p( 4.79)3d( 0.02)
      O    4      [core]2S( 1.66)2p( 5.03)3p( 0.01)3d( 0.01)
     Cl    5      [core]3S( 1.86)3p( 5.04)3d( 0.01)5p( 0.01)
     Cl    6      [core]3S( 1.86)3p( 5.08)3d( 0.01)5p( 0.01)
     Cl    7      [core]3S( 1.86)3p( 5.04)3d( 0.01)5p( 0.01)
      H    8            1S( 0.45)


 NBO analysis skipped by request.
 Calling FoFJK, ICntrl=      2127 FMM=F ISym2X=0 I1Cent= 0 IOpClX= 0 NMat=1 NMatS=1 NMatT=0.
 ***** Axes restored to original set *****
 -------------------------------------------------------------------
 Center     Atomic                   Forces (Hartrees/Bohr)
 Number     Number              X              Y              Z
 -------------------------------------------------------------------
      1        6          -0.043746659    0.019644138   -0.009048527
      2        6           0.021577020   -0.001409215    0.004957653
      3        8           0.015963130   -0.026398297    0.002156908
      4        8          -0.004943093    0.011286926   -0.000482379
      5       17           0.000069518    0.003894667   -0.008035972
      6       17          -0.001201013   -0.013133989   -0.001062532
      7       17          -0.003588493    0.002961176    0.007620231
      8        1           0.015869589    0.003154595    0.003894618
 -------------------------------------------------------------------
 Cartesian Forces:  Max     0.043746659 RMS     0.013834703

 GradGradGradGradGradGradGradGradGradGradGradGradGradGradGradGradGradGrad
 Berny optimization.
 FormGI is forming the generalized inverse of G from B-inverse, IUseBI=4.
 Internal  Forces:  Max     0.030840536 RMS     0.012385113
 Search for a local minimum.
 Step number   1 out of a maximum of   35
 All quantities printed in internal units (Hartrees-Bohrs-Radians)
 Mixed Optimization -- RFO/linear search
 Second derivative matrix not updated -- first step.
 ITU=  0
     Eigenvalues ---    0.00560   0.00996   0.02309   0.10546   0.11402
     Eigenvalues ---    0.16000   0.25000   0.25000   0.25000   0.25000
     Eigenvalues ---    0.25000   0.27204   0.27617   0.27618   0.30800
     Eigenvalues ---    0.54314   0.54362   0.94794
 RFO step:  Lambda=-1.28053623D-02 EMin= 5.60360248D-03
 Linear search not attempted -- first point.
 Iteration  1 RMS(Cart)=  0.11138085 RMS(Int)=  0.00890365
 Iteration  2 RMS(Cart)=  0.00932010 RMS(Int)=  0.00033277
 Iteration  3 RMS(Cart)=  0.00010190 RMS(Int)=  0.00032594
 Iteration  4 RMS(Cart)=  0.00000002 RMS(Int)=  0.00032594
 Variable       Old X    -DE/DX   Delta X   Delta X   Delta X     New X
                                 (Linear)    (Quad)   (Total)
    R1        2.86396   0.01747   0.00000   0.05444   0.05444   2.91840
    R2        2.30799  -0.03084   0.00000  -0.03210  -0.03210   2.27589
    R3        2.55746  -0.01838   0.00000  -0.03307  -0.03307   2.52440
    R4        3.36681   0.00754   0.00000   0.02610   0.02610   3.39291
    R5        3.37612   0.01167   0.00000   0.04098   0.04098   3.41710
    R6        3.36683   0.00754   0.00000   0.02609   0.02609   3.39292
    R7        1.82404   0.00329   0.00000   0.00590   0.00590   1.82994
    A1        2.07702   0.00749   0.00000   0.02851   0.02851   2.10553
    A2        2.13453  -0.02026   0.00000  -0.07710  -0.07710   2.05744
    A3        2.07164   0.01277   0.00000   0.04858   0.04858   2.12022
    A4        1.90689  -0.00639   0.00000  -0.02229  -0.02276   1.88413
    A5        1.98942  -0.01203   0.00000  -0.05001  -0.05079   1.93863
    A6        1.90689  -0.00639   0.00000  -0.02229  -0.02277   1.88412
    A7        1.88146   0.00863   0.00000   0.02876   0.02796   1.90941
    A8        1.89563   0.00888   0.00000   0.04269   0.04255   1.93818
    A9        1.88145   0.00863   0.00000   0.02876   0.02796   1.90941
   A10        2.15308  -0.02976   0.00000  -0.17222  -0.17222   1.98086
    D1       -1.03580  -0.00162   0.00000  -0.01274  -0.01247  -1.04827
    D2       -3.14159  -0.00000   0.00000  -0.00000  -0.00000   3.14159
    D3        1.03581   0.00162   0.00000   0.01273   0.01246   1.04827
    D4        2.10579  -0.00161   0.00000  -0.01273  -0.01246   2.09333
    D5       -0.00000  -0.00000   0.00000   0.00000   0.00000   0.00000
    D6       -2.10579   0.00162   0.00000   0.01274   0.01247  -2.09332
    D7        0.00000  -0.00000   0.00000  -0.00000  -0.00000  -0.00000
    D8        3.14159   0.00000   0.00000   0.00000   0.00000  -3.14159
         Item               Value     Threshold  Converged?
 Maximum Force            0.030841     0.000450     NO 
 RMS     Force            0.012385     0.000300     NO 
 Maximum Displacement     0.412330     0.001800     NO 
 RMS     Displacement     0.115707     0.001200     NO 
 Predicted change in Energy=-6.748388D-03
 GradGradGradGradGradGradGradGradGradGradGradGradGradGradGradGradGradGrad

                          Input orientation:                          
 ---------------------------------------------------------------------
 Center     Atomic      Atomic             Coordinates (Angstroms)
 Number     Number       Type             X           Y           Z
 ---------------------------------------------------------------------
      1          6           0       -3.555952    2.039210   -0.365474
      2          6           0       -2.053473    1.948828   -0.019918
      3          8           0       -4.107526    3.107839   -0.430672
      4          8           0       -4.215625    0.899007   -0.587448
      5         17           0       -1.141524    2.851666   -1.275659
      6         17           0       -1.495017    0.229205    0.008128
      7         17           0       -1.813708    2.680301    1.602156
      8          1           0       -3.660814    0.109644   -0.504863
 ---------------------------------------------------------------------
                    Distance matrix (angstroms):
                    1          2          3          4          5
     1  C    0.000000
     2  C    1.544352   0.000000
     3  O    1.204348   2.393984   0.000000
     4  O    1.335854   2.469639   2.217026   0.000000
     5  Cl   2.705177   1.795453   3.094640   3.706293   0.000000
     6  Cl   2.768240   1.808249   3.912069   2.864447   2.941150
     7  Cl   2.705177   1.795457   3.094638   3.706290   2.960239
     8  H    1.937434   2.490244   3.032199   0.968364   3.802582
                    6          7          8
     6  Cl   0.000000
     7  Cl   2.941150   0.000000
     8  H    2.228931   3.802580   0.000000
 Stoichiometry    C2HCl3O2
 Framework group  C1[X(C2HCl3O2)]
 Deg. of freedom    18
 Full point group                 C1      NOp   1
 Largest Abelian subgroup         C1      NOp   1
 Largest concise Abelian subgroup C1      NOp   1
                         Standard orientation:                         
 ---------------------------------------------------------------------
 Center     Atomic      Atomic             Coordinates (Angstroms)
 Number     Number       Type             X           Y           Z
 ---------------------------------------------------------------------
      1          6           0       -1.304228   -0.348834    0.000004
      2          6           0        0.197508    0.011458    0.000002
      3          8           0       -1.659291   -1.499653    0.000002
      4          8           0       -2.187185    0.653608    0.000003
      5         17           0        0.934517   -0.688348    1.480117
      6         17           0        0.436154    1.803890   -0.000000
      7         17           0        0.934509   -0.688347   -1.480122
      8          1           0       -1.775923    1.530302    0.000003
 ---------------------------------------------------------------------
 Rotational constants (GHZ):           1.4585257           1.3818641           1.2454203
 Standard basis: 6-31+G(d,p) (6D, 7F)
 There are   150 symmetry adapted cartesian basis functions of A   symmetry.
 There are   150 symmetry adapted basis functions of A   symmetry.
   150 basis functions,   303 primitive gaussians,   150 cartesian basis functions
    40 alpha electrons       40 beta electrons
       nuclear repulsion energy       539.9654659035 Hartrees.
 NAtoms=    8 NActive=    8 NUniq=    8 SFac= 1.00D+00 NAtFMM=   60 NAOKFM=F Big=F
 Integral buffers will be    131072 words long.
 Raffenetti 2 integral format.
 Two-electron integral symmetry is turned on.
 One-electron integrals computed using PRISM.
 NBasis=   150 RedAO= T EigKep=  4.34D-05  NBF=   150
 NBsUse=   150 1.00D-06 EigRej= -1.00D+00 NBFU=   150
 Initial guess from the checkpoint file:  "acidotricloroacetico.chk"
 B after Tr=     0.000000    0.000000    0.000000
         Rot=    0.999436   -0.000002   -0.000005   -0.033577 Ang=  -3.85 deg.
 ExpMin= 4.38D-02 ExpMax= 2.52D+04 ExpMxC= 3.78D+03 IAcc=3 IRadAn=         5 AccDes= 0.00D+00
 Harris functional with IExCor=  402 and IRadAn=       5 diagonalized for initial guess.
 HarFok:  IExCor=  402 AccDes= 0.00D+00 IRadAn=         5 IDoV= 1 UseB2=F ITyADJ=14
 ICtDFT=  3500011 ScaDFX=  1.000000  1.000000  1.000000  1.000000
 FoFCou: FMM=F IPFlag=           0 FMFlag=      100000 FMFlg1=           0
         NFxFlg=           0 DoJE=T BraDBF=F KetDBF=T FulRan=T
         wScrn=  0.000000 ICntrl=       500 IOpCl=  0 I1Cent=   200000004 NGrid=           0
         NMat0=    1 NMatS0=      1 NMatT0=    0 NMatD0=    1 NMtDS0=    0 NMtDT0=    0
 Petite list used in FoFCou.
 Keep R1 ints in memory in canonical form, NReq=65855697.
 Requested convergence on RMS density matrix=1.00D-08 within 128 cycles.
 Requested convergence on MAX density matrix=1.00D-06.
 Requested convergence on             energy=1.00D-06.
 No special actions if energy rises.
 SCF Done:  E(RB3LYP) =  -1607.84138319     A.U. after   12 cycles
            NFock= 12  Conv=0.46D-08     -V/T= 2.0039
 Calling FoFJK, ICntrl=      2127 FMM=F ISym2X=0 I1Cent= 0 IOpClX= 0 NMat=1 NMatS=1 NMatT=0.
 ***** Axes restored to original set *****
 -------------------------------------------------------------------
 Center     Atomic                   Forces (Hartrees/Bohr)
 Number     Number              X              Y              Z
 -------------------------------------------------------------------
      1        6          -0.018292212    0.006230707   -0.003901114
      2        6           0.008076299    0.003234131    0.002079910
      3        8           0.005848469   -0.003466347    0.001159366
      4        8          -0.005464777    0.001180539   -0.001206242
      5       17          -0.000607535   -0.001893972    0.002872104
      6       17           0.005796876   -0.002457745    0.001207471
      7       17           0.000772857   -0.001542269   -0.003038880
      8        1           0.003870023   -0.001285045    0.000827385
 -------------------------------------------------------------------
 Cartesian Forces:  Max     0.018292212 RMS     0.005130650

 GradGradGradGradGradGradGradGradGradGradGradGradGradGradGradGradGradGrad
 Berny optimization.
 Using GEDIIS/GDIIS optimizer.
 FormGI is forming the generalized inverse of G from B-inverse, IUseBI=4.
 Internal  Forces:  Max     0.014512250 RMS     0.004727822
 Search for a local minimum.
 Step number   2 out of a maximum of   35
 All quantities printed in internal units (Hartrees-Bohrs-Radians)
 Mixed Optimization -- RFO/linear search
 Update second derivatives using D2CorX and points    1    2
 DE= -6.94D-03 DEPred=-6.75D-03 R= 1.03D+00
 TightC=F SS=  1.41D+00  RLast= 2.34D-01 DXNew= 5.0454D-01 7.0069D-01
 Trust test= 1.03D+00 RLast= 2.34D-01 DXMaxT set to 5.05D-01
 ITU=  1  0
 Use linear search instead of GDIIS.
     Eigenvalues ---    0.00560   0.01003   0.02309   0.11336   0.11850
     Eigenvalues ---    0.13450   0.23209   0.25000   0.25000   0.25000
     Eigenvalues ---    0.26652   0.27217   0.27618   0.28619   0.36142
     Eigenvalues ---    0.54073   0.55582   0.92647
 RFO step:  Lambda=-2.13868907D-03 EMin= 5.60360248D-03
 Quartic linear search produced a step of  0.03849.
 Iteration  1 RMS(Cart)=  0.03317809 RMS(Int)=  0.00065854
 Iteration  2 RMS(Cart)=  0.00062826 RMS(Int)=  0.00007187
 Iteration  3 RMS(Cart)=  0.00000023 RMS(Int)=  0.00007187
 Variable       Old X    -DE/DX   Delta X   Delta X   Delta X     New X
                                 (Linear)    (Quad)   (Total)
    R1        2.91840   0.01451   0.00210   0.05521   0.05730   2.97571
    R2        2.27589  -0.00582  -0.00124  -0.01042  -0.01166   2.26423
    R3        2.52440   0.00094  -0.00127  -0.00236  -0.00363   2.52077
    R4        3.39291  -0.00327   0.00100  -0.00900  -0.00800   3.38492
    R5        3.41710   0.00415   0.00158   0.02068   0.02225   3.43935
    R6        3.39292  -0.00327   0.00100  -0.00901  -0.00800   3.38492
    R7        1.82994   0.00333   0.00023   0.00708   0.00730   1.83725
    A1        2.10553  -0.00524   0.00110  -0.01810  -0.01700   2.08853
    A2        2.05744   0.00205  -0.00297  -0.00093  -0.00389   2.05355
    A3        2.12022   0.00319   0.00187   0.01903   0.02090   2.14111
    A4        1.88413   0.00047  -0.00088  -0.00252  -0.00351   1.88061
    A5        1.93863   0.01180  -0.00195   0.04563   0.04350   1.98213
    A6        1.88412   0.00047  -0.00088  -0.00252  -0.00351   1.88061
    A7        1.90941  -0.00505   0.00108  -0.01402  -0.01312   1.89629
    A8        1.93818  -0.00234   0.00164  -0.01173  -0.01014   1.92803
    A9        1.90941  -0.00505   0.00108  -0.01402  -0.01312   1.89629
   A10        1.98086  -0.00455  -0.00663  -0.04925  -0.05588   1.92498
    D1       -1.04827   0.00113  -0.00048   0.00842   0.00798  -1.04029
    D2        3.14159   0.00000  -0.00000   0.00001   0.00001  -3.14158
    D3        1.04827  -0.00113   0.00048  -0.00839  -0.00796   1.04031
    D4        2.09333   0.00113  -0.00048   0.00840   0.00797   2.10129
    D5        0.00000   0.00000   0.00000  -0.00000  -0.00000  -0.00000
    D6       -2.09332  -0.00113   0.00048  -0.00841  -0.00798  -2.10130
    D7       -0.00000   0.00000  -0.00000   0.00001   0.00001   0.00001
    D8       -3.14159  -0.00000   0.00000  -0.00001  -0.00001   3.14159
         Item               Value     Threshold  Converged?
 Maximum Force            0.014512     0.000450     NO 
 RMS     Force            0.004728     0.000300     NO 
 Maximum Displacement     0.115548     0.001800     NO 
 RMS     Displacement     0.033386     0.001200     NO 
 Predicted change in Energy=-1.102572D-03
 GradGradGradGradGradGradGradGradGradGradGradGradGradGradGradGradGradGrad

                          Input orientation:                          
 ---------------------------------------------------------------------
 Center     Atomic      Atomic             Coordinates (Angstroms)
 Number     Number       Type             X           Y           Z
 ---------------------------------------------------------------------
      1          6           0       -3.585942    2.038482   -0.372518
      2          6           0       -2.054597    1.933127   -0.021113
      3          8           0       -4.108341    3.115226   -0.430429
      4          8           0       -4.249719    0.903053   -0.595172
      5         17           0       -1.144398    2.841531   -1.268034
      6         17           0       -1.433871    0.222766    0.022025
      7         17           0       -1.812648    2.671166    1.592961
      8          1           0       -3.654124    0.140349   -0.501471
 ---------------------------------------------------------------------
                    Distance matrix (angstroms):
                    1          2          3          4          5
     1  C    0.000000
     2  C    1.574676   0.000000
     3  O    1.198178   2.404738   0.000000
     4  O    1.333932   2.491818   2.222799   0.000000
     5  Cl   2.721759   1.791221   3.092159   3.722023   0.000000
     6  Cl   2.843219   1.820026   3.965328   2.961878   2.933594
     7  Cl   2.721758   1.791222   3.092168   3.722025   2.942936
     8  H    1.903729   2.450159   3.010191   0.972230   3.765996
                    6          7          8
     6  Cl   0.000000
     7  Cl   2.933594   0.000000
     8  H    2.282622   3.765994   0.000000
 Stoichiometry    C2HCl3O2
 Framework group  C1[X(C2HCl3O2)]
 Deg. of freedom    18
 Full point group                 C1      NOp   1
 Largest Abelian subgroup         C1      NOp   1
 Largest concise Abelian subgroup C1      NOp   1
                         Standard orientation:                         
 ---------------------------------------------------------------------
 Center     Atomic      Atomic             Coordinates (Angstroms)
 Number     Number       Type             X           Y           Z
 ---------------------------------------------------------------------
      1          6           0       -1.385248   -0.088961   -0.000008
      2          6           0        0.187779   -0.016912    0.000001
      3          8           0       -1.929978   -1.156154   -0.000004
      4          8           0       -2.057891    1.062961   -0.000005
      5         17           0        0.772804   -0.854171    1.471468
      6         17           0        0.838393    1.682851    0.000008
      7         17           0        0.772816   -0.854161   -1.471469
      8          1           0       -1.440460    1.813967   -0.000003
 ---------------------------------------------------------------------
 Rotational constants (GHZ):           1.4688890           1.3628384           1.2265805
 Standard basis: 6-31+G(d,p) (6D, 7F)
 There are   150 symmetry adapted cartesian basis functions of A   symmetry.
 There are   150 symmetry adapted basis functions of A   symmetry.
   150 basis functions,   303 primitive gaussians,   150 cartesian basis functions
    40 alpha electrons       40 beta electrons
       nuclear repulsion energy       538.2417598781 Hartrees.
 NAtoms=    8 NActive=    8 NUniq=    8 SFac= 1.00D+00 NAtFMM=   60 NAOKFM=F Big=F
 Integral buffers will be    131072 words long.
 Raffenetti 2 integral format.
 Two-electron integral symmetry is turned on.
 One-electron integrals computed using PRISM.
 NBasis=   150 RedAO= T EigKep=  4.64D-05  NBF=   150
 NBsUse=   150 1.00D-06 EigRej= -1.00D+00 NBFU=   150
 Initial guess from the checkpoint file:  "acidotricloroacetico.chk"
 B after Tr=    -0.000000   -0.000000   -0.000000
         Rot=    0.994849   -0.000001    0.000003    0.101365 Ang= -11.64 deg.
 ExpMin= 4.38D-02 ExpMax= 2.52D+04 ExpMxC= 3.78D+03 IAcc=3 IRadAn=         5 AccDes= 0.00D+00
 Harris functional with IExCor=  402 and IRadAn=       5 diagonalized for initial guess.
 HarFok:  IExCor=  402 AccDes= 0.00D+00 IRadAn=         5 IDoV= 1 UseB2=F ITyADJ=14
 ICtDFT=  3500011 ScaDFX=  1.000000  1.000000  1.000000  1.000000
 FoFCou: FMM=F IPFlag=           0 FMFlag=      100000 FMFlg1=           0
         NFxFlg=           0 DoJE=T BraDBF=F KetDBF=T FulRan=T
         wScrn=  0.000000 ICntrl=       500 IOpCl=  0 I1Cent=   200000004 NGrid=           0
         NMat0=    1 NMatS0=      1 NMatT0=    0 NMatD0=    1 NMtDS0=    0 NMtDT0=    0
 Petite list used in FoFCou.
 Keep R1 ints in memory in canonical form, NReq=65855697.
 Requested convergence on RMS density matrix=1.00D-08 within 128 cycles.
 Requested convergence on MAX density matrix=1.00D-06.
 Requested convergence on             energy=1.00D-06.
 No special actions if energy rises.
 SCF Done:  E(RB3LYP) =  -1607.84211621     A.U. after   11 cycles
            NFock= 11  Conv=0.67D-08     -V/T= 2.0039
 Calling FoFJK, ICntrl=      2127 FMM=F ISym2X=0 I1Cent= 0 IOpClX= 0 NMat=1 NMatS=1 NMatT=0.
 ***** Axes restored to original set *****
 -------------------------------------------------------------------
 Center     Atomic                   Forces (Hartrees/Bohr)
 Number     Number              X              Y              Z
 -------------------------------------------------------------------
      1        6          -0.003099516    0.001254526   -0.000651222
      2        6           0.003655282    0.003489782    0.001062356
      3        8           0.001044211    0.002075518    0.000368286
      4        8           0.003284546   -0.002403742    0.000624574
      5       17          -0.000776812   -0.000956187    0.000471593
      6       17          -0.002938788    0.000288056   -0.000669309
      7       17          -0.000463327   -0.000876253   -0.000870537
      8        1          -0.000705595   -0.002871701   -0.000335740
 -------------------------------------------------------------------
 Cartesian Forces:  Max     0.003655282 RMS     0.001851446

 GradGradGradGradGradGradGradGradGradGradGradGradGradGradGradGradGradGrad
 Berny optimization.
 Using GEDIIS/GDIIS optimizer.
 FormGI is forming the generalized inverse of G from B-inverse, IUseBI=4.
 Internal  Forces:  Max     0.007261184 RMS     0.002390282
 Search for a local minimum.
 Step number   3 out of a maximum of   35
 All quantities printed in internal units (Hartrees-Bohrs-Radians)
 Mixed Optimization -- RFO/linear search
 Update second derivatives using D2CorX and points    1    2    3
 DE= -7.33D-04 DEPred=-1.10D-03 R= 6.65D-01
 TightC=F SS=  1.41D+00  RLast= 1.03D-01 DXNew= 8.4853D-01 3.0874D-01
 Trust test= 6.65D-01 RLast= 1.03D-01 DXMaxT set to 5.05D-01
 ITU=  1  1  0
 Use linear search instead of GDIIS.
     Eigenvalues ---    0.00560   0.01019   0.02309   0.10845   0.11848
     Eigenvalues ---    0.14500   0.20800   0.25000   0.25000   0.25647
     Eigenvalues ---    0.26515   0.27618   0.28211   0.28998   0.43362
     Eigenvalues ---    0.53886   0.55930   0.92802
 RFO step:  Lambda=-2.60092720D-04 EMin= 5.60360248D-03
 Quartic linear search produced a step of -0.23911.
 Iteration  1 RMS(Cart)=  0.01434031 RMS(Int)=  0.00010880
 Iteration  2 RMS(Cart)=  0.00010567 RMS(Int)=  0.00000950
 Iteration  3 RMS(Cart)=  0.00000000 RMS(Int)=  0.00000950
 Variable       Old X    -DE/DX   Delta X   Delta X   Delta X     New X
                                 (Linear)    (Quad)   (Total)
    R1        2.97571  -0.00064  -0.01370   0.01728   0.00358   2.97928
    R2        2.26423   0.00139   0.00279  -0.00242   0.00037   2.26460
    R3        2.52077   0.00316   0.00087   0.00377   0.00464   2.52541
    R4        3.38492  -0.00121   0.00191  -0.00656  -0.00465   3.38027
    R5        3.43935  -0.00129  -0.00532   0.00333  -0.00199   3.43736
    R6        3.38492  -0.00121   0.00191  -0.00656  -0.00465   3.38027
    R7        1.83725   0.00179  -0.00175   0.00498   0.00323   1.84048
    A1        2.08853  -0.00016   0.00407  -0.00681  -0.00274   2.08578
    A2        2.05355  -0.00398   0.00093  -0.01221  -0.01128   2.04226
    A3        2.14111   0.00414  -0.00500   0.01902   0.01402   2.15514
    A4        1.88061   0.00094   0.00084   0.00328   0.00411   1.88472
    A5        1.98213  -0.00726  -0.01040  -0.00911  -0.01950   1.96263
    A6        1.88061   0.00094   0.00084   0.00328   0.00411   1.88472
    A7        1.89629   0.00217   0.00314  -0.00102   0.00213   1.89842
    A8        1.92803   0.00111   0.00243   0.00494   0.00734   1.93537
    A9        1.89629   0.00217   0.00314  -0.00102   0.00213   1.89842
   A10        1.92498   0.00437   0.01336   0.00502   0.01839   1.94336
    D1       -1.04029  -0.00117  -0.00191  -0.00474  -0.00667  -1.04695
    D2       -3.14158  -0.00000  -0.00000  -0.00003  -0.00003   3.14157
    D3        1.04031   0.00117   0.00190   0.00468   0.00660   1.04691
    D4        2.10129  -0.00117  -0.00190  -0.00469  -0.00661   2.09468
    D5       -0.00000   0.00000   0.00000   0.00002   0.00002   0.00002
    D6       -2.10130   0.00117   0.00191   0.00473   0.00666  -2.09464
    D7        0.00001  -0.00000  -0.00000  -0.00002  -0.00003  -0.00002
    D8        3.14159   0.00000   0.00000   0.00003   0.00003  -3.14157
         Item               Value     Threshold  Converged?
 Maximum Force            0.007261     0.000450     NO 
 RMS     Force            0.002390     0.000300     NO 
 Maximum Displacement     0.051583     0.001800     NO 
 RMS     Displacement     0.014375     0.001200     NO 
 Predicted change in Energy=-2.040232D-04
 GradGradGradGradGradGradGradGradGradGradGradGradGradGradGradGradGradGrad

                          Input orientation:                          
 ---------------------------------------------------------------------
 Center     Atomic      Atomic             Coordinates (Angstroms)
 Number     Number       Type             X           Y           Z
 ---------------------------------------------------------------------
      1          6           0       -3.587713    2.043308   -0.372659
      2          6           0       -2.054281    1.942731   -0.020472
      3          8           0       -4.110602    3.120028   -0.430657
      4          8           0       -4.236533    0.895864   -0.592514
      5         17           0       -1.140734    2.840671   -1.268993
      6         17           0       -1.461168    0.223556    0.015695
      7         17           0       -1.809780    2.670109    1.595329
      8          1           0       -3.642830    0.129432   -0.499480
 ---------------------------------------------------------------------
                    Distance matrix (angstroms):
                    1          2          3          4          5
     1  C    0.000000
     2  C    1.576568   0.000000
     3  O    1.198375   2.404732   0.000000
     4  O    1.336387   2.487043   2.233599   0.000000
     5  Cl   2.725235   1.788762   3.098543   3.718047   0.000000
     6  Cl   2.825687   1.818970   3.950732   2.919686   2.932983
     7  Cl   2.725235   1.788763   3.098521   3.718028   2.946364
     8  H    1.918865   2.457842   3.027740   0.973938   3.768747
                    6          7          8
     6  Cl   0.000000
     7  Cl   2.932984   0.000000
     8  H    2.243638   3.768731   0.000000
 Stoichiometry    C2HCl3O2
 Framework group  C1[X(C2HCl3O2)]
 Deg. of freedom    18
 Full point group                 C1      NOp   1
 Largest Abelian subgroup         C1      NOp   1
 Largest concise Abelian subgroup C1      NOp   1
                         Standard orientation:                         
 ---------------------------------------------------------------------
 Center     Atomic      Atomic             Coordinates (Angstroms)
 Number     Number       Type             X           Y           Z
 ---------------------------------------------------------------------
      1          6           0       -1.375788   -0.174998    0.000035
      2          6           0        0.192617   -0.014782    0.000001
      3          8           0       -1.856974   -1.272524    0.000025
      4          8           0       -2.100617    0.947746    0.000026
      5         17           0        0.828639   -0.805302    1.473170
      6         17           0        0.712820    1.728215   -0.000014
      7         17           0        0.828574   -0.805307   -1.473194
      8          1           0       -1.530798    1.737595    0.000016
 ---------------------------------------------------------------------
 Rotational constants (GHZ):           1.4650062           1.3695399           1.2313876
 Standard basis: 6-31+G(d,p) (6D, 7F)
 There are   150 symmetry adapted cartesian basis functions of A   symmetry.
 There are   150 symmetry adapted basis functions of A   symmetry.
   150 basis functions,   303 primitive gaussians,   150 cartesian basis functions
    40 alpha electrons       40 beta electrons
       nuclear repulsion energy       538.6591626906 Hartrees.
 NAtoms=    8 NActive=    8 NUniq=    8 SFac= 1.00D+00 NAtFMM=   60 NAOKFM=F Big=F
 Integral buffers will be    131072 words long.
 Raffenetti 2 integral format.
 Two-electron integral symmetry is turned on.
 One-electron integrals computed using PRISM.
 NBasis=   150 RedAO= T EigKep=  4.57D-05  NBF=   150
 NBsUse=   150 1.00D-06 EigRej= -1.00D+00 NBFU=   150
 Initial guess from the checkpoint file:  "acidotricloroacetico.chk"
 B after Tr=     0.000000   -0.000000    0.000000
         Rot=    0.999508    0.000002   -0.000011   -0.031358 Ang=   3.59 deg.
 ExpMin= 4.38D-02 ExpMax= 2.52D+04 ExpMxC= 3.78D+03 IAcc=3 IRadAn=         5 AccDes= 0.00D+00
 Harris functional with IExCor=  402 and IRadAn=       5 diagonalized for initial guess.
 HarFok:  IExCor=  402 AccDes= 0.00D+00 IRadAn=         5 IDoV= 1 UseB2=F ITyADJ=14
 ICtDFT=  3500011 ScaDFX=  1.000000  1.000000  1.000000  1.000000
 FoFCou: FMM=F IPFlag=           0 FMFlag=      100000 FMFlg1=           0
         NFxFlg=           0 DoJE=T BraDBF=F KetDBF=T FulRan=T
         wScrn=  0.000000 ICntrl=       500 IOpCl=  0 I1Cent=   200000004 NGrid=           0
         NMat0=    1 NMatS0=      1 NMatT0=    0 NMatD0=    1 NMtDS0=    0 NMtDT0=    0
 Petite list used in FoFCou.
 Keep R1 ints in memory in canonical form, NReq=65855697.
 Requested convergence on RMS density matrix=1.00D-08 within 128 cycles.
 Requested convergence on MAX density matrix=1.00D-06.
 Requested convergence on             energy=1.00D-06.
 No special actions if energy rises.
 SCF Done:  E(RB3LYP) =  -1607.84231834     A.U. after   11 cycles
            NFock= 11  Conv=0.32D-08     -V/T= 2.0039
 Calling FoFJK, ICntrl=      2127 FMM=F ISym2X=0 I1Cent= 0 IOpClX= 0 NMat=1 NMatS=1 NMatT=0.
 ***** Axes restored to original set *****
 -------------------------------------------------------------------
 Center     Atomic                   Forces (Hartrees/Bohr)
 Number     Number              X              Y              Z
 -------------------------------------------------------------------
      1        6          -0.000100911   -0.001421168   -0.000102619
      2        6           0.001391617    0.001697333    0.000425243
      3        8          -0.000483298   -0.000167888   -0.000125352
      4        8           0.000183805    0.000939413    0.000097427
      5       17          -0.000507005   -0.000394465    0.000676129
      6       17           0.000043141   -0.000601513   -0.000025819
      7       17          -0.000145870   -0.000302759   -0.000870586
      8        1          -0.000381478    0.000251048   -0.000074422
 -------------------------------------------------------------------
 Cartesian Forces:  Max     0.001697333 RMS     0.000663361

 GradGradGradGradGradGradGradGradGradGradGradGradGradGradGradGradGradGrad
 Berny optimization.
 Using GEDIIS/GDIIS optimizer.
 FormGI is forming the generalized inverse of G from B-inverse, IUseBI=4.
 Internal  Forces:  Max     0.001135057 RMS     0.000509657
 Search for a local minimum.
 Step number   4 out of a maximum of   35
 All quantities printed in internal units (Hartrees-Bohrs-Radians)
 Mixed Optimization -- En-DIIS/RFO-DIIS
 Update second derivatives using D2CorX and points    1    2    3    4
 DE= -2.02D-04 DEPred=-2.04D-04 R= 9.91D-01
 TightC=F SS=  1.41D+00  RLast= 3.76D-02 DXNew= 8.4853D-01 1.1283D-01
 Trust test= 9.91D-01 RLast= 3.76D-02 DXMaxT set to 5.05D-01
 ITU=  1  1  1  0
 Use linear search instead of GDIIS.
     Eigenvalues ---    0.00560   0.01026   0.02309   0.11067   0.11882
     Eigenvalues ---    0.15207   0.19781   0.24801   0.25000   0.25086
     Eigenvalues ---    0.26657   0.27618   0.28384   0.28663   0.44497
     Eigenvalues ---    0.53963   0.58807   0.92882
 RFO step:  Lambda=-2.02306196D-05 EMin= 5.60360256D-03
 Quartic linear search produced a step of -0.02788.
 Iteration  1 RMS(Cart)=  0.00236999 RMS(Int)=  0.00000331
 Iteration  2 RMS(Cart)=  0.00000333 RMS(Int)=  0.00000031
 Iteration  3 RMS(Cart)=  0.00000000 RMS(Int)=  0.00000031
 Variable       Old X    -DE/DX   Delta X   Delta X   Delta X     New X
                                 (Linear)    (Quad)   (Total)
    R1        2.97928   0.00078  -0.00010   0.00282   0.00272   2.98200
    R2        2.26460   0.00007  -0.00001   0.00003   0.00002   2.26462
    R3        2.52541  -0.00093  -0.00013  -0.00132  -0.00145   2.52396
    R4        3.38027  -0.00093   0.00013  -0.00355  -0.00342   3.37685
    R5        3.43736   0.00058   0.00006   0.00196   0.00202   3.43937
    R6        3.38027  -0.00093   0.00013  -0.00355  -0.00342   3.37685
    R7        1.84048  -0.00044  -0.00009  -0.00047  -0.00056   1.83991
    A1        2.08578   0.00005   0.00008   0.00006   0.00014   2.08592
    A2        2.04226   0.00109   0.00031   0.00288   0.00320   2.04546
    A3        2.15514  -0.00114  -0.00039  -0.00295  -0.00334   2.15180
    A4        1.88472  -0.00001  -0.00011   0.00021   0.00010   1.88482
    A5        1.96263  -0.00035   0.00054  -0.00332  -0.00277   1.95986
    A6        1.88472  -0.00001  -0.00011   0.00021   0.00010   1.88482
    A7        1.89842   0.00020  -0.00006   0.00117   0.00111   1.89953
    A8        1.93537  -0.00003  -0.00020   0.00054   0.00033   1.93571
    A9        1.89842   0.00020  -0.00006   0.00117   0.00111   1.89953
   A10        1.94336   0.00028  -0.00051   0.00284   0.00233   1.94569
    D1       -1.04695   0.00003   0.00019  -0.00033  -0.00014  -1.04710
    D2        3.14157   0.00000   0.00000   0.00011   0.00011  -3.14150
    D3        1.04691  -0.00003  -0.00018   0.00055   0.00037   1.04728
    D4        2.09468   0.00003   0.00018  -0.00051  -0.00033   2.09435
    D5        0.00002  -0.00000  -0.00000  -0.00007  -0.00007  -0.00006
    D6       -2.09464  -0.00003  -0.00019   0.00036   0.00018  -2.09446
    D7       -0.00002   0.00000   0.00000   0.00009   0.00009   0.00007
    D8       -3.14157  -0.00000  -0.00000  -0.00011  -0.00011   3.14151
         Item               Value     Threshold  Converged?
 Maximum Force            0.001135     0.000450     NO 
 RMS     Force            0.000510     0.000300     NO 
 Maximum Displacement     0.007110     0.001800     NO 
 RMS     Displacement     0.002370     0.001200     NO 
 Predicted change in Energy=-1.027273D-05
 GradGradGradGradGradGradGradGradGradGradGradGradGradGradGradGradGradGrad

                          Input orientation:                          
 ---------------------------------------------------------------------
 Center     Atomic      Atomic             Coordinates (Angstroms)
 Number     Number       Type             X           Y           Z
 ---------------------------------------------------------------------
      1          6           0       -3.586867    2.042359   -0.372464
      2          6           0       -2.051908    1.944119   -0.019816
      3          8           0       -4.111495    3.118213   -0.431025
      4          8           0       -4.237162    0.896702   -0.592633
      5         17           0       -1.140370    2.841686   -1.267481
      6         17           0       -1.460496    0.223218    0.015834
      7         17           0       -1.808750    2.671272    1.594283
      8          1           0       -3.646592    0.128130   -0.500448
 ---------------------------------------------------------------------
                    Distance matrix (angstroms):
                    1          2          3          4          5
     1  C    0.000000
     2  C    1.578008   0.000000
     3  O    1.198385   2.406135   0.000000
     4  O    1.335622   2.490088   2.230924   0.000000
     5  Cl   2.724945   1.786951   3.098985   3.718669   0.000000
     6  Cl   2.825155   1.820039   3.950756   2.921248   2.933556
     7  Cl   2.724945   1.786951   3.099075   3.718721   2.943717
     8  H    1.919432   2.464111   3.026805   0.973639   3.772648
                    6          7          8
     6  Cl   0.000000
     7  Cl   2.933556   0.000000
     8  H    2.248245   3.772683   0.000000
 Stoichiometry    C2HCl3O2
 Framework group  C1[X(C2HCl3O2)]
 Deg. of freedom    18
 Full point group                 C1      NOp   1
 Largest Abelian subgroup         C1      NOp   1
 Largest concise Abelian subgroup C1      NOp   1
                         Standard orientation:                         
 ---------------------------------------------------------------------
 Center     Atomic      Atomic             Coordinates (Angstroms)
 Number     Number       Type             X           Y           Z
 ---------------------------------------------------------------------
      1          6           0       -1.374738   -0.179402   -0.000121
      2          6           0        0.194682   -0.014985   -0.000003
      3          8           0       -1.853245   -1.278110   -0.000080
      4          8           0       -2.105627    0.938492   -0.000088
      5         17           0        0.832081   -0.802674    1.471888
      6         17           0        0.705841    1.731799    0.000066
      7         17           0        0.832296   -0.802621   -1.471828
      8          1           0       -1.542403    1.732692   -0.000054
 ---------------------------------------------------------------------
 Rotational constants (GHZ):           1.4657975           1.3698278           1.2305439
 Standard basis: 6-31+G(d,p) (6D, 7F)
 There are   150 symmetry adapted cartesian basis functions of A   symmetry.
 There are   150 symmetry adapted basis functions of A   symmetry.
   150 basis functions,   303 primitive gaussians,   150 cartesian basis functions
    40 alpha electrons       40 beta electrons
       nuclear repulsion energy       538.6934668883 Hartrees.
 NAtoms=    8 NActive=    8 NUniq=    8 SFac= 1.00D+00 NAtFMM=   60 NAOKFM=F Big=F
 Integral buffers will be    131072 words long.
 Raffenetti 2 integral format.
 Two-electron integral symmetry is turned on.
 One-electron integrals computed using PRISM.
 NBasis=   150 RedAO= T EigKep=  4.57D-05  NBF=   150
 NBsUse=   150 1.00D-06 EigRej= -1.00D+00 NBFU=   150
 Initial guess from the checkpoint file:  "acidotricloroacetico.chk"
 B after Tr=     0.000000    0.000000    0.000000
         Rot=    0.999998   -0.000008    0.000039   -0.001953 Ang=  -0.22 deg.
 Keep R1 ints in memory in canonical form, NReq=65855697.
 Requested convergence on RMS density matrix=1.00D-08 within 128 cycles.
 Requested convergence on MAX density matrix=1.00D-06.
 Requested convergence on             energy=1.00D-06.
 No special actions if energy rises.
 SCF Done:  E(RB3LYP) =  -1607.84233124     A.U. after    9 cycles
            NFock=  9  Conv=0.70D-08     -V/T= 2.0039
 Calling FoFJK, ICntrl=      2127 FMM=F ISym2X=0 I1Cent= 0 IOpClX= 0 NMat=1 NMatS=1 NMatT=0.
 ***** Axes restored to original set *****
 -------------------------------------------------------------------
 Center     Atomic                   Forces (Hartrees/Bohr)
 Number     Number              X              Y              Z
 -------------------------------------------------------------------
      1        6          -0.000032492   -0.000724921   -0.000071481
      2        6           0.000239440    0.000857320    0.000111064
      3        8          -0.000162472    0.000266912   -0.000012975
      4        8           0.000168956    0.000197514    0.000056610
      5       17          -0.000182201   -0.000202050    0.000257634
      6       17           0.000106399   -0.000389769    0.000001904
      7       17          -0.000044230   -0.000165918   -0.000331493
      8        1          -0.000093399    0.000160913   -0.000011264
 -------------------------------------------------------------------
 Cartesian Forces:  Max     0.000857320 RMS     0.000287422

 GradGradGradGradGradGradGradGradGradGradGradGradGradGradGradGradGradGrad
 Berny optimization.
 Using GEDIIS/GDIIS optimizer.
 FormGI is forming the generalized inverse of G from B-inverse, IUseBI=4.
 Internal  Forces:  Max     0.000403144 RMS     0.000173776
 Search for a local minimum.
 Step number   5 out of a maximum of   35
 All quantities printed in internal units (Hartrees-Bohrs-Radians)
 Mixed Optimization -- En-DIIS/RFO-DIIS
 Swapping is turned off.
 Update second derivatives using D2CorX and points    1    2    3    4    5
 DE= -1.29D-05 DEPred=-1.03D-05 R= 1.26D+00
 TightC=F SS=  1.41D+00  RLast= 8.65D-03 DXNew= 8.4853D-01 2.5940D-02
 Trust test= 1.26D+00 RLast= 8.65D-03 DXMaxT set to 5.05D-01
 ITU=  1  1  1  1  0
     Eigenvalues ---    0.00560   0.01025   0.02309   0.11098   0.11120
     Eigenvalues ---    0.15044   0.16891   0.23045   0.25000   0.25128
     Eigenvalues ---    0.25996   0.27618   0.28412   0.30481   0.44328
     Eigenvalues ---    0.53952   0.56403   0.93586
 En-DIIS/RFO-DIIS/Sim-DIIS IScMMF=       -3 using points:     5    4
 RFO step:  Lambda=-3.66285885D-06.
 DidBck=F Rises=F RFO-DIIS coefs:    1.42899   -0.42899
 Iteration  1 RMS(Cart)=  0.00076552 RMS(Int)=  0.00000042
 Iteration  2 RMS(Cart)=  0.00000069 RMS(Int)=  0.00000017
 Variable       Old X    -DE/DX   Delta X   Delta X   Delta X     New X
                                 (Linear)    (Quad)   (Total)
    R1        2.98200   0.00012   0.00117   0.00015   0.00132   2.98332
    R2        2.26462   0.00031   0.00001   0.00033   0.00034   2.26496
    R3        2.52396  -0.00035  -0.00062  -0.00033  -0.00095   2.52301
    R4        3.37685  -0.00037  -0.00147  -0.00086  -0.00233   3.37452
    R5        3.43937   0.00040   0.00087   0.00148   0.00235   3.44172
    R6        3.37685  -0.00037  -0.00147  -0.00086  -0.00232   3.37452
    R7        1.83991  -0.00018  -0.00024  -0.00012  -0.00036   1.83955
    A1        2.08592  -0.00004   0.00006  -0.00037  -0.00031   2.08561
    A2        2.04546   0.00014   0.00137  -0.00087   0.00050   2.04596
    A3        2.15180  -0.00010  -0.00143   0.00125  -0.00019   2.15161
    A4        1.88482   0.00004   0.00004   0.00028   0.00032   1.88514
    A5        1.95986  -0.00009  -0.00119  -0.00019  -0.00138   1.95848
    A6        1.88482   0.00004   0.00004   0.00028   0.00032   1.88514
    A7        1.89953   0.00001   0.00048  -0.00037   0.00010   1.89964
    A8        1.93571   0.00000   0.00014   0.00040   0.00054   1.93625
    A9        1.89953   0.00001   0.00048  -0.00037   0.00010   1.89964
   A10        1.94569  -0.00005   0.00100  -0.00116  -0.00016   1.94553
    D1       -1.04710  -0.00003  -0.00006  -0.00103  -0.00109  -1.04819
    D2       -3.14150  -0.00000   0.00005  -0.00064  -0.00059   3.14109
    D3        1.04728   0.00002   0.00016  -0.00024  -0.00009   1.04719
    D4        2.09435  -0.00002  -0.00014   0.00004  -0.00010   2.09425
    D5       -0.00006   0.00000  -0.00003   0.00044   0.00040   0.00035
    D6       -2.09446   0.00003   0.00008   0.00083   0.00091  -2.09355
    D7        0.00007  -0.00000   0.00004  -0.00051  -0.00047  -0.00040
    D8        3.14151   0.00000  -0.00005   0.00061   0.00056  -3.14111
         Item               Value     Threshold  Converged?
 Maximum Force            0.000403     0.000450     YES
 RMS     Force            0.000174     0.000300     YES
 Maximum Displacement     0.001595     0.001800     YES
 RMS     Displacement     0.000766     0.001200     YES
 Predicted change in Energy=-1.831479D-06
 Optimization completed.
    -- Stationary point found.
                           ----------------------------
                           !   Optimized Parameters   !
                           ! (Angstroms and Degrees)  !
 --------------------------                            --------------------------
 ! Name  Definition              Value          Derivative Info.                !
 --------------------------------------------------------------------------------
 ! R1    R(1,2)                  1.578          -DE/DX =    0.0001              !
 ! R2    R(1,3)                  1.1984         -DE/DX =    0.0003              !
 ! R3    R(1,4)                  1.3356         -DE/DX =   -0.0004              !
 ! R4    R(2,5)                  1.787          -DE/DX =   -0.0004              !
 ! R5    R(2,6)                  1.82           -DE/DX =    0.0004              !
 ! R6    R(2,7)                  1.787          -DE/DX =   -0.0004              !
 ! R7    R(4,8)                  0.9736         -DE/DX =   -0.0002              !
 ! A1    A(2,1,3)              119.5147         -DE/DX =    0.0                 !
 ! A2    A(2,1,4)              117.1963         -DE/DX =    0.0001              !
 ! A3    A(3,1,4)              123.289          -DE/DX =   -0.0001              !
 ! A4    A(1,2,5)              107.9923         -DE/DX =    0.0                 !
 ! A5    A(1,2,6)              112.2917         -DE/DX =   -0.0001              !
 ! A6    A(1,2,7)              107.9922         -DE/DX =    0.0                 !
 ! A7    A(5,2,6)              108.8353         -DE/DX =    0.0                 !
 ! A8    A(5,2,7)              110.9078         -DE/DX =    0.0                 !
 ! A9    A(6,2,7)              108.8353         -DE/DX =    0.0                 !
 ! A10   A(1,4,8)              111.4799         -DE/DX =    0.0                 !
 ! D1    D(3,1,2,5)            -59.9942         -DE/DX =    0.0                 !
 ! D2    D(3,1,2,6)            180.0052         -DE/DX =    0.0                 !
 ! D3    D(3,1,2,7)             60.0046         -DE/DX =    0.0                 !
 ! D4    D(4,1,2,5)            119.9974         -DE/DX =    0.0                 !
 ! D5    D(4,1,2,6)             -0.0032         -DE/DX =    0.0                 !
 ! D6    D(4,1,2,7)           -120.0038         -DE/DX =    0.0                 !
 ! D7    D(2,1,4,8)              0.004          -DE/DX =    0.0                 !
 ! D8    D(3,1,4,8)           -180.0048         -DE/DX =    0.0                 !
 --------------------------------------------------------------------------------
 GradGradGradGradGradGradGradGradGradGradGradGradGradGradGradGradGradGrad

                          Input orientation:                          
 ---------------------------------------------------------------------
 Center     Atomic      Atomic             Coordinates (Angstroms)
 Number     Number       Type             X           Y           Z
 ---------------------------------------------------------------------
      1          6           0       -3.586867    2.042359   -0.372464
      2          6           0       -2.051908    1.944119   -0.019816
      3          8           0       -4.111495    3.118213   -0.431025
      4          8           0       -4.237162    0.896702   -0.592633
      5         17           0       -1.140370    2.841686   -1.267481
      6         17           0       -1.460496    0.223218    0.015834
      7         17           0       -1.808750    2.671272    1.594283
      8          1           0       -3.646592    0.128130   -0.500448
 ---------------------------------------------------------------------
                    Distance matrix (angstroms):
                    1          2          3          4          5
     1  C    0.000000
     2  C    1.578008   0.000000
     3  O    1.198385   2.406135   0.000000
     4  O    1.335622   2.490088   2.230924   0.000000
     5  Cl   2.724945   1.786951   3.098985   3.718669   0.000000
     6  Cl   2.825155   1.820039   3.950756   2.921248   2.933556
     7  Cl   2.724945   1.786951   3.099075   3.718721   2.943717
     8  H    1.919432   2.464111   3.026805   0.973639   3.772648
                    6          7          8
     6  Cl   0.000000
     7  Cl   2.933556   0.000000
     8  H    2.248245   3.772683   0.000000
 Stoichiometry    C2HCl3O2
 Framework group  C1[X(C2HCl3O2)]
 Deg. of freedom    18
 Full point group                 C1      NOp   1
 Largest Abelian subgroup         C1      NOp   1
 Largest concise Abelian subgroup C1      NOp   1
                         Standard orientation:                         
 ---------------------------------------------------------------------
 Center     Atomic      Atomic             Coordinates (Angstroms)
 Number     Number       Type             X           Y           Z
 ---------------------------------------------------------------------
      1          6           0       -1.374738   -0.179402   -0.000121
      2          6           0        0.194682   -0.014985   -0.000003
      3          8           0       -1.853245   -1.278110   -0.000080
      4          8           0       -2.105627    0.938492   -0.000088
      5         17           0        0.832081   -0.802674    1.471888
      6         17           0        0.705841    1.731799    0.000066
      7         17           0        0.832296   -0.802621   -1.471828
      8          1           0       -1.542403    1.732692   -0.000054
 ---------------------------------------------------------------------
 Rotational constants (GHZ):           1.4657975           1.3698278           1.2305439

 **********************************************************************

            Population analysis using the SCF Density.

 **********************************************************************

 Orbital symmetries:
       Occupied  (A) (A) (A) (A) (A) (A) (A) (A) (A) (A) (A) (A)
                 (A) (A) (A) (A) (A) (A) (A) (A) (A) (A) (A) (A)
                 (A) (A) (A) (A) (A) (A) (A) (A) (A) (A) (A) (A)
                 (A) (A) (A) (A)
       Virtual   (A) (A) (A) (A) (A) (A) (A) (A) (A) (A) (A) (A)
                 (A) (A) (A) (A) (A) (A) (A) (A) (A) (A) (A) (A)
                 (A) (A) (A) (A) (A) (A) (A) (A) (A) (A) (A) (A)
                 (A) (A) (A) (A) (A) (A) (A) (A) (A) (A) (A) (A)
                 (A) (A) (A) (A) (A) (A) (A) (A) (A) (A) (A) (A)
                 (A) (A) (A) (A) (A) (A) (A) (A) (A) (A) (A) (A)
                 (A) (A) (A) (A) (A) (A) (A) (A) (A) (A) (A) (A)
                 (A) (A) (A) (A) (A) (A) (A) (A) (A) (A) (A) (A)
                 (A) (A) (A) (A) (A) (A) (A) (A) (A) (A) (A) (A)
                 (A) (A)
 The electronic state is 1-A.
 Alpha  occ. eigenvalues -- -101.60756-101.59715-101.59715 -19.24903 -19.18898
 Alpha  occ. eigenvalues --  -10.41253 -10.38084  -9.52370  -9.51270  -9.51270
 Alpha  occ. eigenvalues --   -7.28805  -7.27792  -7.27781  -7.27779  -7.27721
 Alpha  occ. eigenvalues --   -7.26637  -7.26637  -7.26611  -7.26611  -1.15686
 Alpha  occ. eigenvalues --   -1.07583  -0.97333  -0.87415  -0.86939  -0.72165
 Alpha  occ. eigenvalues --   -0.66092  -0.57725  -0.52459  -0.51841  -0.48330
 Alpha  occ. eigenvalues --   -0.47170  -0.44496  -0.39133  -0.39096  -0.37538
 Alpha  occ. eigenvalues --   -0.36344  -0.34911  -0.34644  -0.33675  -0.32067
 Alpha virt. eigenvalues --   -0.07717  -0.07348  -0.04205  -0.01233   0.01632
 Alpha virt. eigenvalues --    0.02880   0.03742   0.03779   0.06507   0.07931
 Alpha virt. eigenvalues --    0.07945   0.08253   0.09229   0.09334   0.10834
 Alpha virt. eigenvalues --    0.11496   0.11878   0.12123   0.12306   0.13181
 Alpha virt. eigenvalues --    0.14200   0.15084   0.15793   0.16186   0.19324
 Alpha virt. eigenvalues --    0.22263   0.24797   0.26098   0.26851   0.29279
 Alpha virt. eigenvalues --    0.29405   0.30937   0.32354   0.33834   0.38214
 Alpha virt. eigenvalues --    0.40687   0.51370   0.52029   0.53404   0.54370
 Alpha virt. eigenvalues --    0.55967   0.56527   0.57026   0.57868   0.60840
 Alpha virt. eigenvalues --    0.61899   0.62557   0.63517   0.65249   0.66142
 Alpha virt. eigenvalues --    0.69891   0.72420   0.73073   0.75003   0.80543
 Alpha virt. eigenvalues --    0.81017   0.81860   0.83874   0.83900   0.86962
 Alpha virt. eigenvalues --    0.87349   0.87688   0.93142   0.99651   1.01219
 Alpha virt. eigenvalues --    1.02770   1.06116   1.06452   1.12994   1.16285
 Alpha virt. eigenvalues --    1.16631   1.19581   1.25831   1.26187   1.31053
 Alpha virt. eigenvalues --    1.32738   1.36804   1.37498   1.46025   1.47806
 Alpha virt. eigenvalues --    1.56367   1.59711   1.67597   1.70715   1.74896
 Alpha virt. eigenvalues --    1.75932   1.85071   1.92157   1.96035   1.99263
 Alpha virt. eigenvalues --    2.08325   2.08357   2.32240   2.32424   2.40588
 Alpha virt. eigenvalues --    2.43575   2.56111   2.65501   2.75122   2.91407
 Alpha virt. eigenvalues --    3.02838   3.19210   3.47712   4.01008   4.21262
 Alpha virt. eigenvalues --    4.31370   4.32027   4.33768   4.39450   4.55558
          Condensed to atoms (all electrons):
               1          2          3          4          5          6
     1  C    5.244398  -0.454327   0.538915   0.077369   0.049514   0.078083
     2  C   -0.454327   7.333130  -0.253420   0.003669  -0.059685  -0.188011
     3  O    0.538915  -0.253420   8.150027  -0.134785  -0.007871   0.026887
     4  O    0.077369   0.003669  -0.134785   8.280790  -0.031328   0.014644
     5  Cl   0.049514  -0.059685  -0.007871  -0.031328  17.148826  -0.055694
     6  Cl   0.078083  -0.188011   0.026887   0.014644  -0.055694  17.131308
     7  Cl   0.049486  -0.059545  -0.007887  -0.031322  -0.176125  -0.055719
     8  H    0.085138  -0.075681   0.013465   0.174000   0.005700   0.047118
               7          8
     1  C    0.049486   0.085138
     2  C   -0.059545  -0.075681
     3  O   -0.007887   0.013465
     4  O   -0.031322   0.174000
     5  Cl  -0.176125   0.005700
     6  Cl  -0.055719   0.047118
     7  Cl  17.148756   0.005702
     8  H    0.005702   0.406186
 Mulliken charges:
               1
     1  C    0.331424
     2  C   -0.246129
     3  O   -0.325331
     4  O   -0.353037
     5  Cl   0.126662
     6  Cl   0.001384
     7  Cl   0.126654
     8  H    0.338374
 Sum of Mulliken charges =  -0.00000
 Mulliken charges with hydrogens summed into heavy atoms:
               1
     1  C    0.331424
     2  C   -0.246129
     3  O   -0.325331
     4  O   -0.014663
     5  Cl   0.126662
     6  Cl   0.001384
     7  Cl   0.126654
 Electronic spatial extent (au):  <R**2>=           1132.7841
 Charge=             -0.0000 electrons
 Dipole moment (field-independent basis, Debye):
    X=              1.5133    Y=              2.6018    Z=             -0.0000  Tot=              3.0100
 Quadrupole moment (field-independent basis, Debye-Ang):
   XX=            -66.7240   YY=            -59.1354   ZZ=            -58.8113
   XY=             -4.6772   XZ=             -0.0002   YZ=             -0.0002
 Traceless Quadrupole moment (field-independent basis, Debye-Ang):
   XX=             -5.1671   YY=              2.4215   ZZ=              2.7456
   XY=             -4.6772   XZ=             -0.0002   YZ=             -0.0002
 Octapole moment (field-independent basis, Debye-Ang**2):
  XXX=             15.2536  YYY=             16.4952  ZZZ=              0.0005  XYY=              1.8360
  XXY=              5.6688  XXZ=              0.0002  XZZ=              1.3549  YZZ=             -5.0297
  YYZ=              0.0007  XYZ=              0.0005
 Hexadecapole moment (field-independent basis, Debye-Ang**3):
 XXXX=           -585.7859 YYYY=           -451.1140 ZZZZ=           -367.8946 XXXY=             -8.1901
 XXXZ=             -0.0031 YYYX=            -17.0287 YYYZ=             -0.0006 ZZZX=             -0.0007
 ZZZY=             -0.0017 XXYY=           -170.7359 XXZZ=           -148.3859 YYZZ=           -139.1872
 XXYZ=              0.0008 YYXZ=             -0.0004 ZZXY=             -7.5963
 N-N= 5.386934668883D+02 E-N=-4.889156393765D+03  KE= 1.601557609146D+03
 ******************************Gaussian NBO Version 3.1******************************
             N A T U R A L   A T O M I C   O R B I T A L   A N D
          N A T U R A L   B O N D   O R B I T A L   A N A L Y S I S
 ******************************Gaussian NBO Version 3.1******************************
       /RESON  / : Allow strongly delocalized NBO set

 Analyzing the SCF density

 Job title: acidotricloroacetico                                            

 Storage needed:     68262 in NPA ( 104857200 available)
 GSVD:  LWork=       12708 too small for GESVD, short by        6264 words or        6264 for optimal perf.


 NATURAL POPULATIONS:  Natural atomic orbital occupancies 
                                                          
   NAO  Atom  No  lang   Type(AO)    Occupancy      Energy
 ----------------------------------------------------------
     1    C    1  S      Cor( 1S)     1.99921     -10.26309
     2    C    1  S      Val( 2S)     0.77655      -0.23191
     3    C    1  S      Ryd( 3S)     0.00593       1.20802
     4    C    1  S      Ryd( 5S)     0.00063       2.81935
     5    C    1  S      Ryd( 4S)     0.00030       1.28965
     6    C    1  px     Val( 2p)     0.87510      -0.11254
     7    C    1  px     Ryd( 4p)     0.01136       0.75222
     8    C    1  px     Ryd( 3p)     0.00082       0.31470
     9    C    1  py     Val( 2p)     0.72637      -0.04824
    10    C    1  py     Ryd( 4p)     0.01612       0.64410
    11    C    1  py     Ryd( 3p)     0.00031       0.30377
    12    C    1  pz     Val( 2p)     0.78646      -0.18184
    13    C    1  pz     Ryd( 4p)     0.00376       0.57630
    14    C    1  pz     Ryd( 3p)     0.00037       0.20543
    15    C    1  dxy    Ryd( 3d)     0.00322       2.49048
    16    C    1  dxz    Ryd( 3d)     0.00061       1.89813
    17    C    1  dyz    Ryd( 3d)     0.00265       2.19794
    18    C    1  dx2y2  Ryd( 3d)     0.00317       2.58457
    19    C    1  dz2    Ryd( 3d)     0.00048       2.25073

    20    C    2  S      Cor( 1S)     1.99925     -10.33238
    21    C    2  S      Val( 2S)     1.19357      -0.53267
    22    C    2  S      Ryd( 4S)     0.00135       1.27874
    23    C    2  S      Ryd( 3S)     0.00043       0.67287
    24    C    2  S      Ryd( 5S)     0.00008       3.70122
    25    C    2  px     Val( 2p)     1.10110      -0.28060
    26    C    2  px     Ryd( 4p)     0.00913       0.52250
    27    C    2  px     Ryd( 3p)     0.00029       0.35106
    28    C    2  py     Val( 2p)     0.95813      -0.31249
    29    C    2  py     Ryd( 4p)     0.01002       0.67755
    30    C    2  py     Ryd( 3p)     0.00046       0.37286
    31    C    2  pz     Val( 2p)     0.98502      -0.31946
    32    C    2  pz     Ryd( 4p)     0.00972       0.59932
    33    C    2  pz     Ryd( 3p)     0.00106       0.32981
    34    C    2  dxy    Ryd( 3d)     0.00151       1.97137
    35    C    2  dxz    Ryd( 3d)     0.00210       1.74943
    36    C    2  dyz    Ryd( 3d)     0.00297       1.78368
    37    C    2  dx2y2  Ryd( 3d)     0.00227       2.02343
    38    C    2  dz2    Ryd( 3d)     0.00302       1.88017

    39    O    3  S      Cor( 1S)     1.99977     -18.90847
    40    O    3  S      Val( 2S)     1.70053      -0.94262
    41    O    3  S      Ryd( 3S)     0.00359       1.07520
    42    O    3  S      Ryd( 5S)     0.00021       2.95994
    43    O    3  S      Ryd( 4S)     0.00016       2.20320
    44    O    3  px     Val( 2p)     1.77142      -0.30377
    45    O    3  px     Ryd( 3p)     0.00333       0.77885
    46    O    3  px     Ryd( 4p)     0.00007       0.92211
    47    O    3  py     Val( 2p)     1.61552      -0.33856
    48    O    3  py     Ryd( 3p)     0.00075       0.86831
    49    O    3  py     Ryd( 4p)     0.00009       0.94465
    50    O    3  pz     Val( 2p)     1.41593      -0.28593
    51    O    3  pz     Ryd( 3p)     0.00103       0.69703
    52    O    3  pz     Ryd( 4p)     0.00001       0.77985
    53    O    3  dxy    Ryd( 3d)     0.00569       2.12001
    54    O    3  dxz    Ryd( 3d)     0.00111       1.77653
    55    O    3  dyz    Ryd( 3d)     0.00432       1.82417
    56    O    3  dx2y2  Ryd( 3d)     0.00632       2.09719
    57    O    3  dz2    Ryd( 3d)     0.00191       1.96367

    58    O    4  S      Cor( 1S)     1.99974     -19.04251
    59    O    4  S      Val( 2S)     1.67155      -0.96952
    60    O    4  S      Ryd( 3S)     0.00479       0.73118
    61    O    4  S      Ryd( 4S)     0.00040       1.34945
    62    O    4  S      Ryd( 5S)     0.00005       4.04781
    63    O    4  px     Val( 2p)     1.74765      -0.39469
    64    O    4  px     Ryd( 3p)     0.00224       0.64258
    65    O    4  px     Ryd( 4p)     0.00029       0.93215
    66    O    4  py     Val( 2p)     1.45700      -0.37847
    67    O    4  py     Ryd( 3p)     0.00382       0.74360
    68    O    4  py     Ryd( 4p)     0.00036       0.98094
    69    O    4  pz     Val( 2p)     1.79391      -0.37577
    70    O    4  pz     Ryd( 3p)     0.00252       0.46088
    71    O    4  pz     Ryd( 4p)     0.00017       0.91855
    72    O    4  dxy    Ryd( 3d)     0.00165       2.75775
    73    O    4  dxz    Ryd( 3d)     0.00265       1.84398
    74    O    4  dyz    Ryd( 3d)     0.00018       1.94660
    75    O    4  dx2y2  Ryd( 3d)     0.00177       2.26437
    76    O    4  dz2    Ryd( 3d)     0.00078       2.28787

    77   Cl    5  S      Cor( 1S)     2.00000    -100.24929
    78   Cl    5  S      Cor( 2S)     1.99972     -10.52537
    79   Cl    5  S      Val( 3S)     1.85898      -1.06660
    80   Cl    5  S      Ryd( 5S)     0.00379       0.51778
    81   Cl    5  S      Ryd( 4S)     0.00043       0.47566
    82   Cl    5  S      Ryd( 6S)     0.00002       4.24265
    83   Cl    5  px     Cor( 2p)     1.99997      -7.26287
    84   Cl    5  px     Val( 3p)     1.84736      -0.35316
    85   Cl    5  px     Ryd( 5p)     0.00192       0.49431
    86   Cl    5  px     Ryd( 4p)     0.00014       0.26859
    87   Cl    5  py     Cor( 2p)     1.99997      -7.26350
    88   Cl    5  py     Val( 3p)     1.78691      -0.34988
    89   Cl    5  py     Ryd( 5p)     0.00247       0.48027
    90   Cl    5  py     Ryd( 4p)     0.00008       0.25740
    91   Cl    5  pz     Cor( 2p)     1.99991      -7.26800
    92   Cl    5  pz     Val( 3p)     1.40132      -0.32776
    93   Cl    5  pz     Ryd( 5p)     0.00372       0.46027
    94   Cl    5  pz     Ryd( 4p)     0.00006       0.25618
    95   Cl    5  dxy    Ryd( 3d)     0.00084       0.88772
    96   Cl    5  dxz    Ryd( 3d)     0.00201       0.97717
    97   Cl    5  dyz    Ryd( 3d)     0.00272       0.98652
    98   Cl    5  dx2y2  Ryd( 3d)     0.00062       0.87309
    99   Cl    5  dz2    Ryd( 3d)     0.00229       1.01661

   100   Cl    6  S      Cor( 1S)     2.00000    -100.25448
   101   Cl    6  S      Cor( 2S)     1.99976     -10.55501
   102   Cl    6  S      Val( 3S)     1.86794      -1.07598
   103   Cl    6  S      Ryd( 5S)     0.00312       0.61054
   104   Cl    6  S      Ryd( 4S)     0.00045       0.44710
   105   Cl    6  S      Ryd( 6S)     0.00001       4.18536
   106   Cl    6  px     Cor( 2p)     1.99998      -7.27390
   107   Cl    6  px     Val( 3p)     1.88562      -0.37312
   108   Cl    6  px     Ryd( 5p)     0.00194       0.50972
   109   Cl    6  px     Ryd( 4p)     0.00020       0.25818
   110   Cl    6  py     Cor( 2p)     1.99989      -7.28071
   111   Cl    6  py     Val( 3p)     1.24811      -0.33314
   112   Cl    6  py     Ryd( 5p)     0.00407       0.43481
   113   Cl    6  py     Ryd( 4p)     0.00012       0.27276
   114   Cl    6  pz     Cor( 2p)     1.99999      -7.27264
   115   Cl    6  pz     Val( 3p)     1.95463      -0.37392
   116   Cl    6  pz     Ryd( 5p)     0.00182       0.47133
   117   Cl    6  pz     Ryd( 4p)     0.00017       0.23122
   118   Cl    6  dxy    Ryd( 3d)     0.00213       0.97457
   119   Cl    6  dxz    Ryd( 3d)     0.00027       0.83169
   120   Cl    6  dyz    Ryd( 3d)     0.00113       0.90819
   121   Cl    6  dx2y2  Ryd( 3d)     0.00310       1.04817
   122   Cl    6  dz2    Ryd( 3d)     0.00152       0.92321

   123   Cl    7  S      Cor( 1S)     2.00000    -100.24929
   124   Cl    7  S      Cor( 2S)     1.99972     -10.52537
   125   Cl    7  S      Val( 3S)     1.85898      -1.06660
   126   Cl    7  S      Ryd( 5S)     0.00379       0.51777
   127   Cl    7  S      Ryd( 4S)     0.00043       0.47566
   128   Cl    7  S      Ryd( 6S)     0.00002       4.24265
   129   Cl    7  px     Cor( 2p)     1.99997      -7.26287
   130   Cl    7  px     Val( 3p)     1.84730      -0.35316
   131   Cl    7  px     Ryd( 5p)     0.00192       0.49430
   132   Cl    7  px     Ryd( 4p)     0.00014       0.26859
   133   Cl    7  py     Cor( 2p)     1.99997      -7.26350
   134   Cl    7  py     Val( 3p)     1.78693      -0.34988
   135   Cl    7  py     Ryd( 5p)     0.00247       0.48027
   136   Cl    7  py     Ryd( 4p)     0.00008       0.25740
   137   Cl    7  pz     Cor( 2p)     1.99991      -7.26800
   138   Cl    7  pz     Val( 3p)     1.40137      -0.32777
   139   Cl    7  pz     Ryd( 5p)     0.00372       0.46027
   140   Cl    7  pz     Ryd( 4p)     0.00006       0.25618
   141   Cl    7  dxy    Ryd( 3d)     0.00084       0.88773
   142   Cl    7  dxz    Ryd( 3d)     0.00201       0.97720
   143   Cl    7  dyz    Ryd( 3d)     0.00272       0.98650
   144   Cl    7  dx2y2  Ryd( 3d)     0.00062       0.87310
   145   Cl    7  dz2    Ryd( 3d)     0.00229       1.01659

   146    H    8  S      Val( 1S)     0.46989       0.07581
   147    H    8  S      Ryd( 2S)     0.00263       0.63449
   148    H    8  px     Ryd( 2p)     0.00090       2.60984
   149    H    8  py     Ryd( 2p)     0.00109       2.85645
   150    H    8  pz     Ryd( 2p)     0.00079       2.21492

 WARNING:  Population inversion found on atom  C    1
           Population inversion found on atom  C    2
           Population inversion found on atom  O    3
           Population inversion found on atom Cl    5
           Population inversion found on atom Cl    6
           Population inversion found on atom Cl    7


 Summary of Natural Population Analysis:                  
                                                          
                                       Natural Population 
                Natural  -----------------------------------------------
    Atom  No    Charge         Core      Valence    Rydberg      Total
 -----------------------------------------------------------------------
      C    1    0.78657      1.99921     3.16449    0.04973     5.21343
      C    2   -0.28150      1.99925     4.23782    0.04442     6.28150
      O    3   -0.53175      1.99977     6.50340    0.02859     8.53175
      O    4   -0.69153      1.99974     6.67011    0.02168     8.69153
     Cl    5    0.08474      9.99957     6.89457    0.02112    16.91526
     Cl    6    0.02403      9.99962     6.95630    0.02004    16.97597
     Cl    7    0.08474      9.99957     6.89458    0.02112    16.91526
      H    8    0.52470      0.00000     0.46989    0.00540     0.47530
 =======================================================================
   * Total *   -0.00000     37.99673    41.79117    0.21210    80.00000

                                 Natural Population      
 --------------------------------------------------------
   Core                      37.99673 ( 99.9914% of  38)
   Valence                   41.79117 ( 99.5028% of  42)
   Natural Minimal Basis     79.78790 ( 99.7349% of  80)
   Natural Rydberg Basis      0.21210 (  0.2651% of  80)
 --------------------------------------------------------

    Atom  No          Natural Electron Configuration
 ----------------------------------------------------------------------------
      C    1      [core]2S( 0.78)2p( 2.39)3S( 0.01)3d( 0.01)4p( 0.03)
      C    2      [core]2S( 1.19)2p( 3.04)3d( 0.01)4p( 0.03)
      O    3      [core]2S( 1.70)2p( 4.80)3p( 0.01)3d( 0.02)
      O    4      [core]2S( 1.67)2p( 5.00)3p( 0.01)3d( 0.01)
     Cl    5      [core]3S( 1.86)3p( 5.04)3d( 0.01)5p( 0.01)
     Cl    6      [core]3S( 1.87)3p( 5.09)3d( 0.01)5p( 0.01)
     Cl    7      [core]3S( 1.86)3p( 5.04)3d( 0.01)5p( 0.01)
      H    8            1S( 0.47)


 NBO analysis skipped by request.
 1\1\GINC-DYME\FOpt\RB3LYP\6-31+G(d,p)\C2H1Cl3O2\MONTOYA\18-Feb-2019\0\
 \#n B3LYP/6-31+G(d,p) Opt Pop=NPA\\acidotricloroacetico\\0,1\C,-3.5868
 668602,2.0423586671,-0.3724635075\C,-2.0519079834,1.9441194311,-0.0198
 162853\O,-4.1114948926,3.1182133451,-0.4310254991\O,-4.2371619382,0.89
 67022848,-0.5926333876\Cl,-1.1403700524,2.8416855936,-1.2674812269\Cl,
 -1.4604961103,0.223218031,0.0158344674\Cl,-1.8087499684,2.6712724113,1
 .5942831657\H,-3.6465921945,0.128130236,-0.5004477268\\Version=EM64L-G
 16RevB.01\State=1-A\HF=-1607.8423312\RMSD=7.010e-09\RMSF=2.874e-04\Dip
 ole=0.6342384,-0.9960857,0.0888803\Quadrupole=-3.8870517,2.0818583,1.8
 051934,3.1381003,-1.1980717,0.7354248\PG=C01 [X(C2H1Cl3O2)]\\@


 THESE ARE THE TIMES THAT TRY MENS SOULS.
 THE SUMMER SOLDIER AND THE SUNSHINE PATRIOT WILL IN THIS CRISIS,
 SHRINK FROM THE SERVICE OF HIS COUNTRY.  BUT HE THAT STANDS NOW,
 DESERVES THE LOVE AND THANKS OF MAN AND WOMAN.
 TYRANNY, LIKE HELL, IS NOT EASILY CONQUERED,
 YET WE HAVE THIS CONSOLATION WITH US,
 THAT THE HARDER THE CONFLICT, THE MORE GLORIOUS THE TRIUMPH.
 WHAT WE OBTAIN TOO CHEAP, WE ESTEEM TOO LIGHTLY, 
 'TIS DEARNESS ONLY THAT GIVES EVERYTHING ITS VALUE.

                                              -- TOM PAINE
 Job cpu time:       0 days  0 hours 10 minutes  7.8 seconds.
 Elapsed time:       0 days  0 hours 11 minutes 52.1 seconds.
 File lengths (MBytes):  RWF=     28 Int=      0 D2E=      0 Chk=      3 Scr=      2
 Normal termination of Gaussian 16 at Mon Feb 18 12:26:12 2019.
