acidodicloroacetico                                                     
FOpt      RB3LYP                                                      6-31+G(d,p)         
Number of atoms                            I                8
Info1-9                                    I   N=           9
          15          15           0           0           0         110
           2          18        -502
Full Title                                 C   N=           2
acidodicloroacetico     
Route                                      C   N=           3
#n B3LYP/6-31+G(d,p) Opt Pop=NPA    
Charge                                     I                0
Multiplicity                               I                1
Number of electrons                        I               64
Number of alpha electrons                  I               32
Number of beta electrons                   I               32
Number of basis functions                  I              132
Number of independent functions            I              132
Number of point charges in /Mol/           I                0
Number of translation vectors              I                0
Atomic numbers                             I   N=           8
           6           6           8           8          17           1
          17           1
Nuclear charges                            R   N=           8
  6.00000000E+00  6.00000000E+00  8.00000000E+00  8.00000000E+00  1.70000000E+01
  1.00000000E+00  1.70000000E+01  1.00000000E+00
Current cartesian coordinates              R   N=          24
  2.27556753E+00 -7.35147884E-04  2.82420362E-01 -4.00917978E-01 -4.30722733E-05
 -8.95788091E-01  2.65825969E+00 -3.13971467E-04  2.51354145E+00  4.19631899E+00
 -7.11367752E-04 -1.40886513E+00 -2.03976025E+00 -2.81417594E+00  2.76454286E-02
 -3.65061886E-01 -7.85378445E-05 -2.95466043E+00 -2.03828981E+00  2.81497408E+00
  2.75777710E-02  3.60738622E+00 -6.17719319E-04 -3.14133815E+00
Number of symbols in /Mol/                 I                0
Force Field                                I                0
Atom Types                                 C   N=           8
                                                            
                                    
Int Atom Types                             I   N=           8
           0           0           0           0           0           0
           0           0
MM charges                                 R   N=           8
  0.00000000E+00  0.00000000E+00  0.00000000E+00  0.00000000E+00  0.00000000E+00
  0.00000000E+00  0.00000000E+00  0.00000000E+00
Integer atomic weights                     I   N=           8
          12          12          16          16          35           1
          35           1
Real atomic weights                        R   N=           8
  1.20000000E+01  1.20000000E+01  1.59949146E+01  1.59949146E+01  3.49688527E+01
  1.00782504E+00  3.49688527E+01  1.00782504E+00
Atom fragment info                         I   N=           8
           0           0           0           0           0           0
           0           0
Atom residue num                           I   N=           8
           0           0           0           0           0           0
           0           0
Nuclear spins                              I   N=           8
           0           0           0           0           3           1
           3           1
Nuclear ZEff                               R   N=           8
 -3.60000000E+00 -3.60000000E+00 -5.60000000E+00 -5.60000000E+00 -1.42400000E+01
 -1.00000000E+00 -1.42400000E+01 -1.00000000E+00
Nuclear ZNuc                               R   N=           8
  6.00000000E+00  6.00000000E+00  8.00000000E+00  8.00000000E+00  1.70000000E+01
  1.00000000E+00  1.70000000E+01  1.00000000E+00
Nuclear QMom                               R   N=           8
  0.00000000E+00  0.00000000E+00  0.00000000E+00  0.00000000E+00 -8.16500000E+00
  0.00000000E+00 -8.16500000E+00  0.00000000E+00
Nuclear GFac                               R   N=           8
  0.00000000E+00  0.00000000E+00  0.00000000E+00  0.00000000E+00  8.21874000E-01
  2.79284600E+00  8.21874000E-01  2.79284600E+00
MicOpt                                     I   N=           8
          -1          -1          -1          -1          -1          -1
          -1          -1
Number of residues                         I                0
Number of secondary structures             I                0
Redundant internal dimensions              I   N=           4
          25           7          10           8
Redundant internal coordinate indices      I   N=         100
           1           2           0           0           1           3
           0           0           1           4           0           0
           2           5           0           0           2           6
           0           0           2           7           0           0
           4           8           0           0           2           1
           3           0           2           1           4           0
           3           1           4           0           1           2
           5           0           1           2           6           0
           1           2           7           0           5           2
           6           0           5           2           7           0
           6           2           7           0           1           4
           8           0           3           1           2           5
           3           1           2           6           3           1
           2           7           4           1           2           5
           4           1           2           6           4           1
           2           7           2           1           4           8
           3           1           4           8
Redundant internal coordinates             R   N=          25
  2.92433759E+00  2.26370377E+00  2.55924457E+00  3.38494864E+00  2.05918454E+00
  3.38495385E+00  1.82983731E+00  2.15534834E+00  2.00495682E+00  2.12288004E+00
  1.91029202E+00  1.96806320E+00  1.91029575E+00  1.85582043E+00  1.96359220E+00
  1.85582111E+00  1.96506902E+00 -1.07999117E+00  3.14133093E+00  1.07946438E+00
  2.06210116E+00  2.37948287E-04 -2.06162860E+00 -2.13605363E-04 -3.14131684E+00
ZRed-IntVec                                I   N=          25
           0           0           0           0           0           0
           0           0           0           0           0           0
           0           0           0           0           0           0
           0           0           0           0           0           0
           0
ZRed-FPVec                                 R   N=          25
  0.00000000E+00  0.00000000E+00  0.00000000E+00  0.00000000E+00  0.00000000E+00
  0.00000000E+00  0.00000000E+00  0.00000000E+00  0.00000000E+00  0.00000000E+00
  0.00000000E+00  0.00000000E+00  0.00000000E+00  0.00000000E+00  0.00000000E+00
  0.00000000E+00  0.00000000E+00  0.00000000E+00  0.00000000E+00  0.00000000E+00
  0.00000000E+00  0.00000000E+00  0.00000000E+00  0.00000000E+00  0.00000000E+00
ZRed-Constraint1                           R   N=          25
  2.84094175E+00  2.30764995E+00  2.55194757E+00  3.36594535E+00  2.09777370E+00
  3.36594779E+00  1.82799048E+00  2.09267670E+00  2.10645510E+00  2.08405350E+00
  1.92116883E+00  1.93001050E+00  1.92116786E+00  1.89125390E+00  1.90839416E+00
  1.89125981E+00  2.12193087E+00 -1.05241798E+00 -3.14159130E+00  1.05241396E+00
  2.08918372E+00  1.03915168E-05 -2.08916966E+00 -5.58557063E-06 -3.14158924E+00
ZRed-Constraint2                           R   N=          25
  0.00000000E+00  0.00000000E+00  0.00000000E+00  0.00000000E+00  0.00000000E+00
  0.00000000E+00  0.00000000E+00  0.00000000E+00  0.00000000E+00  0.00000000E+00
  0.00000000E+00  0.00000000E+00  0.00000000E+00  0.00000000E+00  0.00000000E+00
  0.00000000E+00  0.00000000E+00  0.00000000E+00  0.00000000E+00  0.00000000E+00
  0.00000000E+00  0.00000000E+00  0.00000000E+00  0.00000000E+00  0.00000000E+00
SymInf integers                            I   N=          26
           1           1           1           1           1           0
           0           0           0           0           0           0
           0           0           0           0           0           0
           0           0           0           0           0           0
           0           0
RotTr to input orientation                 R   N=          12
 -9.22542650E-01 -3.07181069E-01 -2.33569796E-01 -2.26893325E-01 -5.78106201E-02
  9.72202320E-01 -3.12144962E-01  9.49893533E-01 -1.63645714E-02 -4.51336937E+00
  4.23730179E+00 -1.52433847E-01
Number of contracted shells                I               38
Number of primitive shells                 I               94
Pure/Cartesian d shells                    I                1
Pure/Cartesian f shells                    I                0
Highest angular momentum                   I                2
Largest degree of contraction              I                6
Shell types                                I   N=          38
           0          -1          -1          -1           2           0
          -1          -1          -1           2           0          -1
          -1          -1           2           0          -1          -1
          -1           2           0          -1          -1          -1
          -1           2           0           0           1           0
          -1          -1          -1          -1           2           0
           0           1
Number of primitives per shell             I   N=          38
           6           3           1           1           1           6
           3           1           1           1           6           3
           1           1           1           6           3           1
           1           1           6           6           3           1
           1           1           3           1           1           6
           6           3           1           1           1           3
           1           1
Shell to atom map                          I   N=          38
           1           1           1           1           1           2
           2           2           2           2           3           3
           3           3           3           4           4           4
           4           4           5           5           5           5
           5           5           6           6           6           7
           7           7           7           7           7           8
           8           8
Primitive exponents                        R   N=          94
  3.04752488E+03  4.57369518E+02  1.03948685E+02  2.92101553E+01  9.28666296E+00
  3.16392696E+00  7.86827235E+00  1.88128854E+00  5.44249258E-01  1.68714478E-01
  4.38000000E-02  8.00000000E-01  3.04752488E+03  4.57369518E+02  1.03948685E+02
  2.92101553E+01  9.28666296E+00  3.16392696E+00  7.86827235E+00  1.88128854E+00
  5.44249258E-01  1.68714478E-01  4.38000000E-02  8.00000000E-01  5.48467166E+03
  8.25234946E+02  1.88046958E+02  5.29645000E+01  1.68975704E+01  5.79963534E+00
  1.55396162E+01  3.59993359E+00  1.01376175E+00  2.70005823E-01  8.45000000E-02
  8.00000000E-01  5.48467166E+03  8.25234946E+02  1.88046958E+02  5.29645000E+01
  1.68975704E+01  5.79963534E+00  1.55396162E+01  3.59993359E+00  1.01376175E+00
  2.70005823E-01  8.45000000E-02  8.00000000E-01  2.51801000E+04  3.78035000E+03
  8.60474000E+02  2.42145000E+02  7.73349000E+01  2.62470000E+01  4.91765000E+02
  1.16984000E+02  3.74153000E+01  1.37834000E+01  5.45215000E+00  2.22588000E+00
  3.18649000E+00  1.14427000E+00  4.20377000E-01  1.42657000E-01  4.83000000E-02
  7.50000000E-01  1.87311370E+01  2.82539436E+00  6.40121692E-01  1.61277759E-01
  1.10000000E+00  2.51801000E+04  3.78035000E+03  8.60474000E+02  2.42145000E+02
  7.73349000E+01  2.62470000E+01  4.91765000E+02  1.16984000E+02  3.74153000E+01
  1.37834000E+01  5.45215000E+00  2.22588000E+00  3.18649000E+00  1.14427000E+00
  4.20377000E-01  1.42657000E-01  4.83000000E-02  7.50000000E-01  1.87311370E+01
  2.82539436E+00  6.40121692E-01  1.61277759E-01  1.10000000E+00
Contraction coefficients                   R   N=          94
  1.83473713E-03  1.40373228E-02  6.88426223E-02  2.32184443E-01  4.67941348E-01
  3.62311985E-01 -1.19332420E-01 -1.60854152E-01  1.14345644E+00  1.00000000E+00
  1.00000000E+00  1.00000000E+00  1.83473713E-03  1.40373228E-02  6.88426223E-02
  2.32184443E-01  4.67941348E-01  3.62311985E-01 -1.19332420E-01 -1.60854152E-01
  1.14345644E+00  1.00000000E+00  1.00000000E+00  1.00000000E+00  1.83107443E-03
  1.39501722E-02  6.84450781E-02  2.32714336E-01  4.70192898E-01  3.58520853E-01
 -1.10777550E-01 -1.48026263E-01  1.13076702E+00  1.00000000E+00  1.00000000E+00
  1.00000000E+00  1.83107443E-03  1.39501722E-02  6.84450781E-02  2.32714336E-01
  4.70192898E-01  3.58520853E-01 -1.10777550E-01 -1.48026263E-01  1.13076702E+00
  1.00000000E+00  1.00000000E+00  1.00000000E+00  1.83295985E-03  1.40341988E-02
  6.90973943E-02  2.37451980E-01  4.83033960E-01  3.39855972E-01 -2.29739142E-03
 -3.07137189E-02 -1.12528069E-01  4.50163278E-02  5.89353363E-01  4.65206287E-01
 -2.51828028E-01  6.15892514E-02  1.06018433E+00  1.00000000E+00  1.00000000E+00
  1.00000000E+00  3.34946043E-02  2.34726953E-01  8.13757326E-01  1.00000000E+00
  1.00000000E+00  1.83295985E-03  1.40341988E-02  6.90973943E-02  2.37451980E-01
  4.83033960E-01  3.39855972E-01 -2.29739142E-03 -3.07137189E-02 -1.12528069E-01
  4.50163278E-02  5.89353363E-01  4.65206287E-01 -2.51828028E-01  6.15892514E-02
  1.06018433E+00  1.00000000E+00  1.00000000E+00  1.00000000E+00  3.34946043E-02
  2.34726953E-01  8.13757326E-01  1.00000000E+00  1.00000000E+00
P(S=P) Contraction coefficients            R   N=          94
  0.00000000E+00  0.00000000E+00  0.00000000E+00  0.00000000E+00  0.00000000E+00
  0.00000000E+00  6.89990666E-02  3.16423961E-01  7.44308291E-01  1.00000000E+00
  1.00000000E+00  0.00000000E+00  0.00000000E+00  0.00000000E+00  0.00000000E+00
  0.00000000E+00  0.00000000E+00  0.00000000E+00  6.89990666E-02  3.16423961E-01
  7.44308291E-01  1.00000000E+00  1.00000000E+00  0.00000000E+00  0.00000000E+00
  0.00000000E+00  0.00000000E+00  0.00000000E+00  0.00000000E+00  0.00000000E+00
  7.08742682E-02  3.39752839E-01  7.27158577E-01  1.00000000E+00  1.00000000E+00
  0.00000000E+00  0.00000000E+00  0.00000000E+00  0.00000000E+00  0.00000000E+00
  0.00000000E+00  0.00000000E+00  7.08742682E-02  3.39752839E-01  7.27158577E-01
  1.00000000E+00  1.00000000E+00  0.00000000E+00  0.00000000E+00  0.00000000E+00
  0.00000000E+00  0.00000000E+00  0.00000000E+00  0.00000000E+00  3.98940088E-03
  3.03177067E-02  1.29880029E-01  3.27951072E-01  4.53527100E-01  2.52154056E-01
 -1.42993147E-02  3.23572333E-01  7.43507765E-01  1.00000000E+00  1.00000000E+00
  0.00000000E+00  0.00000000E+00  0.00000000E+00  0.00000000E+00  0.00000000E+00
  0.00000000E+00  0.00000000E+00  0.00000000E+00  0.00000000E+00  0.00000000E+00
  0.00000000E+00  0.00000000E+00  3.98940088E-03  3.03177067E-02  1.29880029E-01
  3.27951072E-01  4.53527100E-01  2.52154056E-01 -1.42993147E-02  3.23572333E-01
  7.43507765E-01  1.00000000E+00  1.00000000E+00  0.00000000E+00  0.00000000E+00
  0.00000000E+00  0.00000000E+00  0.00000000E+00  0.00000000E+00
Coordinates of each shell                  R   N=         114
  2.27556753E+00 -7.35147884E-04  2.82420362E-01  2.27556753E+00 -7.35147884E-04
  2.82420362E-01  2.27556753E+00 -7.35147884E-04  2.82420362E-01  2.27556753E+00
 -7.35147884E-04  2.82420362E-01  2.27556753E+00 -7.35147884E-04  2.82420362E-01
 -4.00917978E-01 -4.30722733E-05 -8.95788091E-01 -4.00917978E-01 -4.30722733E-05
 -8.95788091E-01 -4.00917978E-01 -4.30722733E-05 -8.95788091E-01 -4.00917978E-01
 -4.30722733E-05 -8.95788091E-01 -4.00917978E-01 -4.30722733E-05 -8.95788091E-01
  2.65825969E+00 -3.13971467E-04  2.51354145E+00  2.65825969E+00 -3.13971467E-04
  2.51354145E+00  2.65825969E+00 -3.13971467E-04  2.51354145E+00  2.65825969E+00
 -3.13971467E-04  2.51354145E+00  2.65825969E+00 -3.13971467E-04  2.51354145E+00
  4.19631899E+00 -7.11367752E-04 -1.40886513E+00  4.19631899E+00 -7.11367752E-04
 -1.40886513E+00  4.19631899E+00 -7.11367752E-04 -1.40886513E+00  4.19631899E+00
 -7.11367752E-04 -1.40886513E+00  4.19631899E+00 -7.11367752E-04 -1.40886513E+00
 -2.03976025E+00 -2.81417594E+00  2.76454286E-02 -2.03976025E+00 -2.81417594E+00
  2.76454286E-02 -2.03976025E+00 -2.81417594E+00  2.76454286E-02 -2.03976025E+00
 -2.81417594E+00  2.76454286E-02 -2.03976025E+00 -2.81417594E+00  2.76454286E-02
 -2.03976025E+00 -2.81417594E+00  2.76454286E-02 -3.65061886E-01 -7.85378445E-05
 -2.95466043E+00 -3.65061886E-01 -7.85378445E-05 -2.95466043E+00 -3.65061886E-01
 -7.85378445E-05 -2.95466043E+00 -2.03828981E+00  2.81497408E+00  2.75777710E-02
 -2.03828981E+00  2.81497408E+00  2.75777710E-02 -2.03828981E+00  2.81497408E+00
  2.75777710E-02 -2.03828981E+00  2.81497408E+00  2.75777710E-02 -2.03828981E+00
  2.81497408E+00  2.75777710E-02 -2.03828981E+00  2.81497408E+00  2.75777710E-02
  3.60738622E+00 -6.17719319E-04 -3.14133815E+00  3.60738622E+00 -6.17719319E-04
 -3.14133815E+00  3.60738622E+00 -6.17719319E-04 -3.14133815E+00
Num ILSW                                   I              100
ILSW                                       I   N=         100
           0           1           0           1           2           0
           0           0           0           0         402          -1
           5           0           0           0           2           0
           0           0           1           0           1           0
           1           0           0           0           0           0
           0           0      100000           0          -1           0
           0           0           0           0           0           0
           0           0           0           1           0           0
           0 -2000000000           1           0           0           0
           0           0           4          52           0           0
           0           0           5           0           0           0
           0           0           0           0           0           1
           0           0           0           0           0           0
           0           0           0           0           0           0
           0           0           0           0           0           0
           0           0           0           0           0           0
           0           0           0           0
Num RLSW                                   I               52
RLSW                                       R   N=          52
  8.00000000E-01  7.20000000E-01  1.00000000E+00  8.10000000E-01  2.00000000E-01
  0.00000000E+00  0.00000000E+00  1.00000000E+00  0.00000000E+00  0.00000000E+00
  0.00000000E+00  0.00000000E+00  1.00000000E+00  0.00000000E+00  0.00000000E+00
  0.00000000E+00  0.00000000E+00  1.00000000E+00  0.00000000E+00  0.00000000E+00
  0.00000000E+00  0.00000000E+00  1.00000000E+00  0.00000000E+00  0.00000000E+00
  0.00000000E+00  0.00000000E+00  1.00000000E+00  0.00000000E+00  0.00000000E+00
  0.00000000E+00  0.00000000E+00  1.00000000E+00  0.00000000E+00  0.00000000E+00
  0.00000000E+00  0.00000000E+00  0.00000000E+00  1.00000000E+00  1.00000000E+00
  0.00000000E+00  1.00000000E+00  0.00000000E+00  0.00000000E+00  0.00000000E+00
  0.00000000E+00  0.00000000E+00  0.00000000E+00  0.00000000E+00  0.00000000E+00
  0.00000000E+00  0.00000000E+00
MxBond                                     I                4
NBond                                      I   N=           8
           3           4           1           2           1           1
           1           1
IBond                                      I   N=          32
           2           3           4           0           1           5
           6           7           1           0           0           0
           1           8           0           0           2           0
           0           0           2           0           0           0
           2           0           0           0           4           0
           0           0
RBond                                      R   N=          32
  1.00000000E+00  2.00000000E+00  1.50000000E+00  0.00000000E+00  1.00000000E+00
  1.00000000E+00  1.00000000E+00  1.00000000E+00  2.00000000E+00  0.00000000E+00
  0.00000000E+00  0.00000000E+00  1.50000000E+00  1.00000000E+00  0.00000000E+00
  0.00000000E+00  1.00000000E+00  0.00000000E+00  0.00000000E+00  0.00000000E+00
  1.00000000E+00  0.00000000E+00  0.00000000E+00  0.00000000E+00  1.00000000E+00
  0.00000000E+00  0.00000000E+00  0.00000000E+00  1.00000000E+00  0.00000000E+00
  0.00000000E+00  0.00000000E+00
Virial Ratio                               R      2.004281610495287E+00
SCF Energy                                 R     -1.148259915479667E+03
Total Energy                               R     -1.148259915479667E+03
RMS Force                                  R      5.431345039750386E-05
RMS Density                                R      1.905921717684224E-09
Job Status                                 I                1
Nuclear derivative order                   I                1
External E-field                           R   N=          35
  0.00000000E+00  0.00000000E+00  0.00000000E+00  0.00000000E+00  0.00000000E+00
  0.00000000E+00  0.00000000E+00  0.00000000E+00  0.00000000E+00  0.00000000E+00
  0.00000000E+00  0.00000000E+00  0.00000000E+00  0.00000000E+00  0.00000000E+00
  0.00000000E+00  0.00000000E+00  0.00000000E+00  0.00000000E+00  0.00000000E+00
  0.00000000E+00  0.00000000E+00  0.00000000E+00  0.00000000E+00  0.00000000E+00
  0.00000000E+00  0.00000000E+00  0.00000000E+00  0.00000000E+00  0.00000000E+00
  0.00000000E+00  0.00000000E+00  0.00000000E+00  0.00000000E+00  0.00000000E+00
IOpCl                                      I                0
IROHF                                      I                0
Alpha Orbital Energies                     R   N=         132
 -1.01584654E+02 -1.01584653E+02 -1.92469323E+01 -1.91825439E+01 -1.03707499E+01
 -1.03534955E+01 -9.50021286E+00 -9.50020638E+00 -7.26495478E+00 -7.26493833E+00
 -7.25422988E+00 -7.25422835E+00 -7.25366950E+00 -7.25366562E+00 -1.14820024E+00
 -1.06797591E+00 -9.35266039E-01 -8.55504570E-01 -7.32180758E-01 -6.61441318E-01
 -5.78727101E-01 -5.16005980E-01 -5.06946403E-01 -4.76205670E-01 -4.53836765E-01
 -4.34419539E-01 -3.67223189E-01 -3.61102580E-01 -3.43216716E-01 -3.41733438E-01
 -3.35323214E-01 -3.14225815E-01 -6.63301049E-02 -5.44582300E-02 -2.31644171E-02
  2.16666650E-02  2.30579531E-02  3.18764076E-02  4.76379065E-02  5.90353386E-02
  7.50693224E-02  7.99137696E-02  8.75472177E-02  8.87930504E-02  9.84722296E-02
  1.19360202E-01  1.23834101E-01  1.25298130E-01  1.29989133E-01  1.49528853E-01
  1.63764259E-01  1.71193523E-01  1.80718881E-01  1.96874819E-01  2.39050601E-01
  2.50570393E-01  2.51789829E-01  2.94055109E-01  2.94466982E-01  3.11273502E-01
  3.18323421E-01  3.36173971E-01  3.84664399E-01  4.30701105E-01  5.31157622E-01
  5.31775865E-01  5.51091928E-01  5.75326952E-01  5.88621231E-01  5.96830640E-01
  6.01257600E-01  6.11587408E-01  6.18786144E-01  6.57071464E-01  6.78583529E-01
  7.20801314E-01  7.28686647E-01  7.72859845E-01  8.16484076E-01  8.47919418E-01
  8.48563565E-01  8.71446696E-01  8.96573348E-01  9.22873508E-01  9.50674517E-01
  9.53192719E-01  1.01130195E+00  1.03090972E+00  1.03940973E+00  1.10807752E+00
  1.15238466E+00  1.15747662E+00  1.22457479E+00  1.25795801E+00  1.29699711E+00
  1.30976562E+00  1.31855782E+00  1.36682423E+00  1.41827832E+00  1.43185415E+00
  1.55868376E+00  1.57194046E+00  1.63135138E+00  1.70665376E+00  1.71887644E+00
  1.75580242E+00  1.83672363E+00  1.89860449E+00  1.93760219E+00  1.99593276E+00
  2.07923814E+00  2.08985141E+00  2.29462896E+00  2.31477189E+00  2.32937656E+00
  2.39317137E+00  2.45818577E+00  2.52848149E+00  2.56916187E+00  2.65797680E+00
  2.74369972E+00  2.92432525E+00  3.02916140E+00  3.18571780E+00  3.31407405E+00
  3.46739713E+00  4.11625127E+00  4.21923843E+00  4.32392415E+00  4.33881627E+00
  4.36750140E+00  4.55866410E+00
Alpha MO coefficients                      R   N=       17424
 -1.23416015E-06  1.56568686E-05  1.35308122E-05 -1.08302334E-05  1.13499113E-05
  7.62071772E-05 -6.74510475E-06 -4.71292535E-06  1.56297577E-04  2.77788999E-05
 -4.07624934E-05  2.50763962E-05 -4.14307966E-06 -2.36695294E-05 -1.23670291E-05
 -3.37183003E-06  1.00483541E-05  2.30195458E-06  1.05173775E-05 -8.98070259E-06
  2.04293541E-05 -2.16768030E-05  6.67328802E-05  3.68589359E-06  1.67813380E-04
  1.28325086E-05  2.95995996E-06 -3.99356391E-05  7.82993100E-04 -3.41043354E-05
  1.24645644E-05  1.53907667E-04 -1.67268796E-05 -3.42801345E-05 -9.89743262E-06
  2.13037794E-05  2.16614902E-06 -1.29203509E-05  6.11664617E-06  2.90780639E-05
 -6.03856509E-06  3.00573429E-06 -5.18355956E-06 -1.66842271E-04  3.65159695E-05
 -1.53336007E-05  7.02932840E-05 -1.66132554E-04  3.61849625E-05  7.96058393E-06
  2.70390284E-05  1.50840553E-05  2.21542423E-05  1.15013493E-05  8.15620355E-06
 -9.14839112E-06  6.21394981E-06 -2.93978582E-06 -1.57648563E-05 -1.11810561E-07
  7.76403776E-07  3.46943122E-08  9.52813988E-05 -2.71323109E-05  3.24647703E-06
  1.13054014E-05 -9.72432821E-05  4.55513661E-05 -1.13419186E-05  9.16559568E-06
 -5.16187910E-06 -7.23724889E-06 -7.27380197E-06 -8.79166629E-08 -4.26122746E-06
  7.70974344E-07 -2.68538216E-01 -4.08179972E-03 -6.48190771E-06 -6.42193544E-06
  3.64312202E-06  5.71431858E-03  2.29742362E-06 -1.21634635E-05  8.83086850E-07
 -6.04092919E-04 -2.07460711E-05 -4.22871929E-05  3.84821520E-06 -1.65727955E-04
 -4.40246189E-05 -3.84350884E-05  3.33911579E-06 -2.02729639E-03 -2.04950656E-03
 -2.02788493E-03 -1.45353357E-06 -1.37089456E-06  4.80357081E-07 -2.52573033E-05
 -9.82731136E-05  6.79258250E-06 -1.55059950E-05 -1.30202192E-05  9.59112708E-01
  1.45894839E-02  2.30389287E-05 -3.64466974E-05 -1.39480694E-05 -2.02916863E-02
 -6.81156626E-06  9.57079436E-06  3.72356235E-06  1.80891745E-03 -3.86437454E-05
  3.97717249E-05  1.97506624E-05 -6.98679854E-04 -6.10798844E-05  9.94944763E-05
 -4.83543850E-06  7.24194091E-03  7.24505017E-03  7.24592207E-03  9.06048909E-06
  2.82479938E-06 -4.99430061E-06 -1.22287368E-06  2.80081356E-05 -2.55447634E-06
  1.23279499E-06  2.09024008E-06 -2.18976706E-06  2.78582895E-05  2.40538118E-05
  6.08562177E-06  2.01911611E-05  1.35379707E-04 -1.20296412E-05  2.71603965E-06
  2.78074440E-04  4.92332175E-05 -7.24335051E-05 -1.40837476E-05 -7.31742111E-06
 -4.20922583E-05 -2.19696629E-05 -5.99160083E-06 -5.65022398E-06  4.09692664E-06
 -5.90532094E-06 -1.59662664E-05  3.63130763E-05 -3.85741721E-05 -3.75231286E-05
  6.55568481E-06  2.98401659E-04  2.28638154E-05 -1.70880810E-06 -7.10346478E-05
  1.39186602E-03 -6.06256885E-05 -6.96890638E-06  2.73562978E-04 -2.97535956E-05
 -6.09218847E-05 -1.75999957E-05 -1.19979334E-05  3.85590446E-06  7.26679495E-06
  1.08815471E-05  5.17179289E-05 -1.07428976E-05 -1.69185750E-06 -9.22373769E-06
 -2.96781040E-04  6.49447537E-05  8.64282194E-06  1.25019944E-04 -2.95388377E-04
  6.43181547E-05 -4.46228117E-06  4.80873948E-05  2.68389512E-05  3.94177878E-05
  2.04635869E-05 -4.58620640E-06 -1.62674390E-05 -3.49741003E-06 -5.23488086E-06
 -2.80628994E-05 -1.86312206E-07 -4.31271324E-07  5.95934090E-08  1.69583164E-04
 -4.83317502E-05 -1.84944239E-06  2.01259786E-05 -1.72685107E-04  8.09288175E-05
  6.35785156E-06  1.63006565E-05 -9.19057931E-06 -1.29005890E-05 -1.29552635E-05
  5.72983434E-08 -7.58256680E-06 -4.33714794E-07  9.59113025E-01  1.45913452E-02
  2.30423308E-05  3.87301310E-05 -1.41088851E-05 -2.02716845E-02 -6.57921144E-06
 -1.85836946E-05  4.89774957E-06  1.74958882E-03 -5.78620479E-05 -7.22127832E-05
  2.54490935E-05 -9.18161649E-04 -9.82593081E-05 -1.39725654E-04 -3.62467973E-06
  7.24214497E-03  7.23231120E-03  7.24645655E-03 -1.14858841E-05  2.47659875E-06
  6.13526015E-06 -4.49059939E-05 -1.74731526E-04  1.20846317E-05  8.71991183E-06
 -2.31472116E-05  2.68539350E-01  4.08844103E-03  6.41882813E-06 -1.46268880E-05
 -4.21177556E-06 -5.64288483E-03 -1.44741847E-06  2.00479609E-05  3.29364322E-06
  3.92271801E-04 -4.77120830E-05  7.36336282E-05  1.65027399E-05 -6.18337482E-04
 -8.85739318E-05  1.05430100E-04  9.75889779E-07  2.02805475E-03  2.00395605E-03
  2.02978283E-03  7.18948312E-06  1.11771286E-07 -3.59470589E-06 -2.18685483E-06
  4.97565243E-05 -4.53710755E-06 -6.90274975E-07  3.71560809E-06 -3.92615216E-05
  1.37173442E-04  3.16371986E-04  6.17995990E-10 -2.37569688E-04 -1.25230010E-04
 -4.34922243E-04  1.40574061E-08 -2.10525848E-04  2.01554146E-03  1.22334388E-03
  3.90673934E-07 -1.98037569E-03  8.64633104E-05 -1.15788979E-04  5.62172491E-05
 -1.51504789E-09 -1.96748941E-04 -1.11983023E-08  7.31766474E-06  8.65292633E-05
 -3.27469827E-05 -8.02767260E-09  1.90027531E-05 -3.56080547E-04 -6.46677546E-05
  9.26571504E-08 -1.54314578E-04  1.12673618E-02 -1.66496248E-03  1.10368055E-06
  2.94788919E-03 -5.45792032E-05  1.47088657E-05  2.84280964E-06  1.51590964E-08
  2.15320682E-05  1.26605643E-09 -3.37994320E-05  6.29556049E-05 -7.45785726E-06
 -9.46753564E-09 -2.56621745E-06  1.16198993E-04  6.34129162E-05  3.53918904E-08
 -3.75521484E-05  3.59353450E-04  3.60572794E-04 -2.89773037E-07 -2.22185752E-04
 -7.07716830E-06  6.09918358E-05 -7.23112423E-05 -6.19393487E-09  5.20391078E-05
 -1.26853587E-08  9.92567584E-01  2.53691948E-02 -1.11696115E-03 -2.83142300E-08
 -4.09964593E-04  1.49968694E-02  7.81136178E-04  4.35687462E-08  3.57067877E-04
 -7.43688642E-03  2.88219101E-04 -2.00393038E-07 -8.69967458E-04 -8.73121665E-03
 -8.56616726E-03 -8.69623826E-03 -1.62070163E-10  1.00365523E-04  2.48830984E-09
  9.58515281E-08 -1.47508265E-07 -2.39011596E-06 -7.06072741E-06 -1.67711267E-06