 Entering Gaussian System, Link 0=g16
 Input=Etano.com
 Output=Etano.log
 Initial command:
 /opt//g16/l1.exe "/mnt/d/User/Documents/Proyectos/Web/PDB/Rotacion de enlaces/Gau-71.inp" -scrdir="/mnt/d/User/Documents/Proyectos/Web/PDB/Rotacion de enlaces/"
 Entering Link 1 = /opt//g16/l1.exe PID=        73.
  
 Copyright (c) 1988-2017, Gaussian, Inc.  All Rights Reserved.
  
 This is part of the Gaussian(R) 16 program.  It is based on
 the Gaussian(R) 09 system (copyright 2009, Gaussian, Inc.),
 the Gaussian(R) 03 system (copyright 2003, Gaussian, Inc.),
 the Gaussian(R) 98 system (copyright 1998, Gaussian, Inc.),
 the Gaussian(R) 94 system (copyright 1995, Gaussian, Inc.),
 the Gaussian 92(TM) system (copyright 1992, Gaussian, Inc.),
 the Gaussian 90(TM) system (copyright 1990, Gaussian, Inc.),
 the Gaussian 88(TM) system (copyright 1988, Gaussian, Inc.),
 the Gaussian 86(TM) system (copyright 1986, Carnegie Mellon
 University), and the Gaussian 82(TM) system (copyright 1983,
 Carnegie Mellon University). Gaussian is a federally registered
 trademark of Gaussian, Inc.
  
 This software contains proprietary and confidential information,
 including trade secrets, belonging to Gaussian, Inc.
  
 This software is provided under written license and may be
 used, copied, transmitted, or stored only in accord with that
 written license.
  
 The following legend is applicable only to US Government
 contracts under FAR:
  
                    RESTRICTED RIGHTS LEGEND
  
 Use, reproduction and disclosure by the US Government is
 subject to restrictions as set forth in subparagraphs (a)
 and (c) of the Commercial Computer Software - Restricted
 Rights clause in FAR 52.227-19.
  
 Gaussian, Inc.
 340 Quinnipiac St., Bldg. 40, Wallingford CT 06492
  
  
 ---------------------------------------------------------------
 Warning -- This program may not be used in any manner that
 competes with the business of Gaussian, Inc. or will provide
 assistance to any competitor of Gaussian, Inc.  The licensee
 of this program is prohibited from giving any competitor of
 Gaussian, Inc. access to this program.  By using this program,
 the user acknowledges that Gaussian, Inc. is engaged in the
 business of creating and licensing software in the field of
 computational chemistry and represents and warrants to the
 licensee that it is not a competitor of Gaussian, Inc. and that
 it will not use this program in any manner prohibited above.
 ---------------------------------------------------------------
  

 Cite this work as:
 Gaussian 16, Revision B.01,
 M. J. Frisch, G. W. Trucks, H. B. Schlegel, G. E. Scuseria, 
 M. A. Robb, J. R. Cheeseman, G. Scalmani, V. Barone, 
 G. A. Petersson, H. Nakatsuji, X. Li, M. Caricato, A. V. Marenich, 
 J. Bloino, B. G. Janesko, R. Gomperts, B. Mennucci, H. P. Hratchian, 
 J. V. Ortiz, A. F. Izmaylov, J. L. Sonnenberg, D. Williams-Young, 
 F. Ding, F. Lipparini, F. Egidi, J. Goings, B. Peng, A. Petrone, 
 T. Henderson, D. Ranasinghe, V. G. Zakrzewski, J. Gao, N. Rega, 
 G. Zheng, W. Liang, M. Hada, M. Ehara, K. Toyota, R. Fukuda, 
 J. Hasegawa, M. Ishida, T. Nakajima, Y. Honda, O. Kitao, H. Nakai, 
 T. Vreven, K. Throssell, J. A. Montgomery, Jr., J. E. Peralta, 
 F. Ogliaro, M. J. Bearpark, J. J. Heyd, E. N. Brothers, K. N. Kudin, 
 V. N. Staroverov, T. A. Keith, R. Kobayashi, J. Normand, 
 K. Raghavachari, A. P. Rendell, J. C. Burant, S. S. Iyengar, 
 J. Tomasi, M. Cossi, J. M. Millam, M. Klene, C. Adamo, R. Cammi, 
 J. W. Ochterski, R. L. Martin, K. Morokuma, O. Farkas, 
 J. B. Foresman, and D. J. Fox, Gaussian, Inc., Wallingford CT, 2016.
 
 ******************************************
 Gaussian 16:  ES64L-G16RevB.01 20-Dec-2017
                14-Oct-2019 
 ******************************************
 %chk=Etano.chk
 -------------------------------------------------
 # opt=modredundant b3lyp/sto-3g geom=connectivity
 -------------------------------------------------
 1/18=120,19=15,26=3,38=1,57=2/1,3;
 2/9=110,12=2,17=6,18=5,40=1/2;
 3/6=3,11=2,25=1,30=1,71=1,74=-5/1,2,3;
 4//1;
 5/5=2,38=5/2;
 6/7=2,8=2,9=2,10=2,28=1/1;
 7//1,2,3,16;
 1/18=20,19=15,26=3/3(2);
 2/9=110/2;
 99//99;
 2/9=110/2;
 3/6=3,11=2,25=1,30=1,71=1,74=-5/1,2,3;
 4/5=5,16=3,69=1/1;
 5/5=2,38=5/2;
 7//1,2,3,16;
 1/18=20,19=15,26=3/3(-5);
 2/9=110/2;
 6/7=2,8=2,9=2,10=2,19=2,28=1/1;
 99/9=1/99;
 -------------------
 Title Card Required
 -------------------
 Symbolic Z-matrix:
 Charge =  0 Multiplicity = 1
 C                    -1.13978  -0.46237   0. 
 H                    -1.25878  -1.50413   0.21321 
 H                    -0.43494  -0.33937  -0.79559 
 H                    -2.08231  -0.04799  -0.29127 
 C                    -0.62644   0.26359   1.2574 
 H                     0.31618   0.72285   1.04425 
 H                    -1.33119   1.01423   1.54857 
 H                    -0.50765  -0.44191   2.05305 
 
 The following ModRedundant input section has been read:
 D       4       1       5       7 S  36 10.000                                
 

 GradGradGradGradGradGradGradGradGradGradGradGradGradGradGradGradGradGrad
 Berny optimization.
 Initialization pass.
                           ----------------------------
                           !    Initial Parameters    !
                           ! (Angstroms and Degrees)  !
 --------------------------                            --------------------------
 ! Name  Definition              Value          Derivative Info.                !
 --------------------------------------------------------------------------------
 ! R1    R(1,2)                  1.07           estimate D2E/DX2                !
 ! R2    R(1,3)                  1.07           estimate D2E/DX2                !
 ! R3    R(1,4)                  1.07           estimate D2E/DX2                !
 ! R4    R(1,5)                  1.54           estimate D2E/DX2                !
 ! R5    R(5,6)                  1.07           estimate D2E/DX2                !
 ! R6    R(5,7)                  1.07           estimate D2E/DX2                !
 ! R7    R(5,8)                  1.07           estimate D2E/DX2                !
 ! A1    A(2,1,3)              109.4712         estimate D2E/DX2                !
 ! A2    A(2,1,4)              109.4712         estimate D2E/DX2                !
 ! A3    A(2,1,5)              109.4712         estimate D2E/DX2                !
 ! A4    A(3,1,4)              109.4712         estimate D2E/DX2                !
 ! A5    A(3,1,5)              109.4713         estimate D2E/DX2                !
 ! A6    A(4,1,5)              109.4712         estimate D2E/DX2                !
 ! A7    A(1,5,6)              109.4712         estimate D2E/DX2                !
 ! A8    A(1,5,7)              109.4712         estimate D2E/DX2                !
 ! A9    A(1,5,8)              109.4712         estimate D2E/DX2                !
 ! A10   A(6,5,7)              109.4713         estimate D2E/DX2                !
 ! A11   A(6,5,8)              109.4712         estimate D2E/DX2                !
 ! A12   A(7,5,8)              109.4712         estimate D2E/DX2                !
 ! D1    D(2,1,5,6)            120.0            estimate D2E/DX2                !
 ! D2    D(2,1,5,7)           -120.0            estimate D2E/DX2                !
 ! D3    D(2,1,5,8)              0.0            estimate D2E/DX2                !
 ! D4    D(3,1,5,6)              0.0            estimate D2E/DX2                !
 ! D5    D(3,1,5,7)            120.0            estimate D2E/DX2                !
 ! D6    D(3,1,5,8)           -120.0            estimate D2E/DX2                !
 ! D7    D(4,1,5,6)           -120.0            estimate D2E/DX2                !
 ! D8    D(4,1,5,7)              0.0            Scan                            !
 ! D9    D(4,1,5,8)            120.0            estimate D2E/DX2                !
 --------------------------------------------------------------------------------
 Trust Radius=3.00D-01 FncErr=1.00D-07 GrdErr=1.00D-06 EigMax=2.50D+02 EigMin=1.00D-04
 Number of optimizations in scan=  37
 Number of steps in this run=     38 maximum allowed number of steps=    100.
 GradGradGradGradGradGradGradGradGradGradGradGradGradGradGradGradGradGrad

                          Input orientation:                          
 ---------------------------------------------------------------------
 Center     Atomic      Atomic             Coordinates (Angstroms)
 Number     Number       Type             X           Y           Z
 ---------------------------------------------------------------------
      1          6           0       -1.139785   -0.462366    0.000000
      2          1           0       -1.258778   -1.504133    0.213214
      3          1           0       -0.434940   -0.339373   -0.795592
      4          1           0       -2.082309   -0.047989   -0.291273
      5          6           0       -0.626443    0.263591    1.257405
      6          1           0        0.316184    0.722849    1.044247
      7          1           0       -1.331185    1.014233    1.548566
      8          1           0       -0.507655   -0.441912    2.053053
 ---------------------------------------------------------------------
                    Distance matrix (angstroms):
                    1          2          3          4          5
     1  C    0.000000
     2  H    1.070000   0.000000
     3  H    1.070000   1.747302   0.000000
     4  H    1.070000   1.747303   1.747303   0.000000
     5  C    1.540000   2.148263   2.148263   2.148263   0.000000
     6  H    2.148263   2.851416   2.253334   2.851417   1.070000
     7  H    2.148263   2.851416   2.851417   2.253333   1.070000
     8  H    2.148263   2.253333   2.851417   2.851417   1.070000
                    6          7          8
     6  H    0.000000
     7  H    1.747303   0.000000
     8  H    1.747303   1.747303   0.000000
 Stoichiometry    C2H6
 Framework group  D3H[C3(C.C),3SGV(H2)]
 Deg. of freedom     3
 Full point group                 D3H     NOp  12
 Largest Abelian subgroup         C2V     NOp   4
 Largest concise Abelian subgroup C2V     NOp   4
                         Standard orientation:                         
 ---------------------------------------------------------------------
 Center     Atomic      Atomic             Coordinates (Angstroms)
 Number     Number       Type             X           Y           Z
 ---------------------------------------------------------------------
      1          6           0       -0.000000    0.000000    0.770000
      2          1           0       -0.000000    1.008806    1.126666
      3          1           0        0.873651   -0.504403    1.126666
      4          1           0       -0.873651   -0.504403    1.126666
      5          6           0        0.000000    0.000000   -0.770000
      6          1           0        0.873651   -0.504403   -1.126666
      7          1           0       -0.873651   -0.504403   -1.126666
      8          1           0        0.000000    1.008806   -1.126666
 ---------------------------------------------------------------------
 Rotational constants (GHZ):          82.1231572          20.2293894          20.2293894
 Standard basis: STO-3G (5D, 7F)
 There are     6 symmetry adapted cartesian basis functions of A1  symmetry.
 There are     2 symmetry adapted cartesian basis functions of A2  symmetry.
 There are     2 symmetry adapted cartesian basis functions of B1  symmetry.
 There are     6 symmetry adapted cartesian basis functions of B2  symmetry.
 There are     6 symmetry adapted basis functions of A1  symmetry.
 There are     2 symmetry adapted basis functions of A2  symmetry.
 There are     2 symmetry adapted basis functions of B1  symmetry.
 There are     6 symmetry adapted basis functions of B2  symmetry.
    16 basis functions,    48 primitive gaussians,    16 cartesian basis functions
     9 alpha electrons        9 beta electrons
       nuclear repulsion energy        42.6774299153 Hartrees.
 NAtoms=    8 NActive=    8 NUniq=    2 SFac= 4.00D+00 NAtFMM=   60 NAOKFM=F Big=F
 Integral buffers will be    131072 words long.
 Raffenetti 2 integral format.
 Two-electron integral symmetry is turned on.
 One-electron integrals computed using PRISM.
 NBasis=    16 RedAO= T EigKep=  1.97D-01  NBF=     6     2     2     6
 NBsUse=    16 1.00D-06 EigRej= -1.00D+00 NBFU=     6     2     2     6
 ExpMin= 1.69D-01 ExpMax= 7.16D+01 ExpMxC= 7.16D+01 IAcc=3 IRadAn=         5 AccDes= 0.00D+00
 Harris functional with IExCor=  402 and IRadAn=       5 diagonalized for initial guess.
 HarFok:  IExCor=  402 AccDes= 0.00D+00 IRadAn=         5 IDoV= 1 UseB2=F ITyADJ=14
 ICtDFT=  3500011 ScaDFX=  1.000000  1.000000  1.000000  1.000000
 FoFCou: FMM=F IPFlag=           0 FMFlag=      100000 FMFlg1=           0
         NFxFlg=           0 DoJE=T BraDBF=F KetDBF=T FulRan=T
         wScrn=  0.000000 ICntrl=       500 IOpCl=  0 I1Cent=   200000004 NGrid=           0
         NMat0=    1 NMatS0=      1 NMatT0=    0 NMatD0=    1 NMtDS0=    0 NMtDT0=    0
 Petite list used in FoFCou.
 Initial guess orbital symmetries:
       Occupied  (A2") (A1') (A1') (A2") (E') (E') (A1') (E") (E")
       Virtual   (A2") (E') (E') (A1') (E") (E") (A2")
 The electronic state of the initial guess is 1-A1'.
 Keep R1 ints in memory in symmetry-blocked form, NReq=873449.
 Requested convergence on RMS density matrix=1.00D-08 within 128 cycles.
 Requested convergence on MAX density matrix=1.00D-06.
 Requested convergence on             energy=1.00D-06.
 No special actions if energy rises.
 Integral accuracy reduced to 1.0D-05 until final iterations.
 Initial convergence to 1.0D-05 achieved.  Increase integral accuracy.
 SCF Done:  E(RB3LYP) =  -78.8762351480     A.U. after    7 cycles
            NFock=  7  Conv=0.13D-08     -V/T= 2.0152

 **********************************************************************

            Population analysis using the SCF Density.

 **********************************************************************

 Orbital symmetries:
       Occupied  (A2") (A1') (A1') (A2") (E') (E') (A1') (E") (E")
       Virtual   (E') (E') (A2") (A1') (A2") (E") (E")
 The electronic state is 1-A1'.
 Alpha  occ. eigenvalues --   -9.99944  -9.99840  -0.72381  -0.59110  -0.41435
 Alpha  occ. eigenvalues --   -0.41435  -0.32163  -0.31648  -0.31648
 Alpha virt. eigenvalues --    0.41337   0.41337   0.42314   0.48613   0.55473
 Alpha virt. eigenvalues --    0.56339   0.56339
          Condensed to atoms (all electrons):
               1          2          3          4          5          6
     1  C    4.782979   0.388867   0.388867   0.388867   0.354238  -0.021270
     2  H    0.388867   0.600159  -0.021491  -0.021491  -0.021270   0.001563
     3  H    0.388867  -0.021491   0.600159  -0.021491  -0.021270  -0.007903
     4  H    0.388867  -0.021491  -0.021491   0.600159  -0.021270   0.001563
     5  C    0.354238  -0.021270  -0.021270  -0.021270   4.782979   0.388867
     6  H   -0.021270   0.001563  -0.007903   0.001563   0.388867   0.600159
     7  H   -0.021270   0.001563   0.001563  -0.007903   0.388867  -0.021491
     8  H   -0.021270  -0.007903   0.001563   0.001563   0.388867  -0.021491
               7          8
     1  C   -0.021270  -0.021270
     2  H    0.001563  -0.007903
     3  H    0.001563   0.001563
     4  H   -0.007903   0.001563
     5  C    0.388867   0.388867
     6  H   -0.021491  -0.021491
     7  H    0.600159  -0.021491
     8  H   -0.021491   0.600159
 Mulliken charges:
               1
     1  C   -0.240008
     2  H    0.080003
     3  H    0.080003
     4  H    0.080003
     5  C   -0.240008
     6  H    0.080003
     7  H    0.080003
     8  H    0.080003
 Sum of Mulliken charges =  -0.00000
 Mulliken charges with hydrogens summed into heavy atoms:
               1
     1  C   -0.000000
     5  C   -0.000000
 Electronic spatial extent (au):  <R**2>=            105.5207
 Charge=             -0.0000 electrons
 Dipole moment (field-independent basis, Debye):
    X=             -0.0000    Y=              0.0000    Z=              0.0000  Tot=              0.0000
 Quadrupole moment (field-independent basis, Debye-Ang):
   XX=            -13.7408   YY=            -13.7408   ZZ=            -14.3621
   XY=             -0.0000   XZ=              0.0000   YZ=             -0.0000
 Traceless Quadrupole moment (field-independent basis, Debye-Ang):
   XX=              0.2071   YY=              0.2071   ZZ=             -0.4142
   XY=             -0.0000   XZ=              0.0000   YZ=             -0.0000
 Octapole moment (field-independent basis, Debye-Ang**2):
  XXX=             -0.0000  YYY=              0.9953  ZZZ=              0.0000  XYY=              0.0000
  XXY=             -0.9953  XXZ=              0.0000  XZZ=             -0.0000  YZZ=             -0.0000
  YYZ=              0.0000  XYZ=              0.0000
 Hexadecapole moment (field-independent basis, Debye-Ang**3):
 XXXX=            -24.1387 YYYY=            -24.1387 ZZZZ=            -83.4502 XXXY=              0.0000
 XXXZ=              0.0000 YYYX=              0.0000 YYYZ=              0.0000 ZZZX=              0.0000
 ZZZY=             -0.0000 XXYY=             -8.0462 XXZZ=            -16.7280 YYZZ=            -16.7280
 XXYZ=              0.0000 YYXZ=             -0.0000 ZZXY=              0.0000
 N-N= 4.267742991527D+01 E-N=-2.669749698214D+02  KE= 7.769740189455D+01
 Symmetry A1   KE= 3.794225567869D+01
 Symmetry A2   KE= 2.165045921462D+00
 Symmetry B1   KE= 1.802493569340D+00
 Symmetry B2   KE= 3.578760672506D+01
 Calling FoFJK, ICntrl=      2127 FMM=F ISym2X=1 I1Cent= 0 IOpClX= 0 NMat=1 NMatS=1 NMatT=0.
 ***** Axes restored to original set *****
 -------------------------------------------------------------------
 Center     Atomic                   Forces (Hartrees/Bohr)
 Number     Number              X              Y              Z
 -------------------------------------------------------------------
      1        6           0.005568406    0.007874706    0.013639521
      2        1          -0.004450048   -0.024345160   -0.000470119
      3        1           0.012575849   -0.000273584   -0.021318629
      4        1          -0.021469568    0.005748308   -0.010896118
      5        6          -0.005568406   -0.007874706   -0.013639521
      6        1           0.021471694    0.012306707    0.000471282
      7        1          -0.012573723    0.018328599    0.010893793
      8        1           0.004445796   -0.011764869    0.021319792
 -------------------------------------------------------------------
 Cartesian Forces:  Max     0.024345160 RMS     0.013282780

 GradGradGradGradGradGradGradGradGradGradGradGradGradGradGradGradGradGrad
 Berny optimization.
 FormGI is forming the generalized inverse of G from B-inverse, IUseBI=4.
 Internal  Forces:  Max     0.024104017 RMS     0.012562721
 Search for a local minimum.
 Step number   1 out of a maximum of   38 on scan point     1 out of    37
 All quantities printed in internal units (Hartrees-Bohrs-Radians)
 Mixed Optimization -- RFO/linear search
 Second derivative matrix not updated -- first step.
 ITU=  0
     Eigenvalues ---    0.01756   0.05720   0.05720   0.05720   0.16000
     Eigenvalues ---    0.16000   0.16000   0.16000   0.16000   0.16000
     Eigenvalues ---    0.28519   0.37230   0.37230   0.37230   0.37230
     Eigenvalues ---    0.37230   0.372301000.000001000.000001000.00000
     Eigenvalues --- 1000.000001000.000001000.000001000.000001000.00000
     Eigenvalues --- 1000.000001000.000001000.00000
 RFO step:  Lambda=-1.31152690D-02 EMin= 1.75616884D-02
 Linear search not attempted -- first point.
 Iteration  1 RMS(Cart)=  0.05986960 RMS(Int)=  0.00063930
 Iteration  2 RMS(Cart)=  0.00073560 RMS(Int)=  0.00035344
 Iteration  3 RMS(Cart)=  0.00000058 RMS(Int)=  0.00035344
 Iteration  1 RMS(Cart)=  0.00000000 RMS(Int)=  0.00000000
 ClnCor:  largest displacement from symmetrization is 5.76D-09 for atom     7.
 Variable       Old X    -DE/DX   Delta X   Delta X   Delta X     New X
                                 (Linear)    (Quad)   (Total)
    R1        2.02201   0.02410   0.00000   0.06254   0.06254   2.08455
    R2        2.02201   0.02410   0.00000   0.06254   0.06254   2.08455
    R3        2.02201   0.02410   0.00000   0.06254   0.06254   2.08455
    R4        2.91018   0.02333   0.00000   0.07819   0.07819   2.98837
    R5        2.02201   0.02410   0.00000   0.06254   0.06254   2.08455
    R6        2.02201   0.02410   0.00000   0.06254   0.06254   2.08455
    R7        2.02201   0.02410   0.00000   0.06254   0.06254   2.08455
    A1        1.91063  -0.00569   0.00000  -0.03288  -0.03341   1.87723
    A2        1.91063  -0.00569   0.00000  -0.03288  -0.03341   1.87723
    A3        1.91063   0.00569   0.00000   0.03288   0.03233   1.94296
    A4        1.91063  -0.00569   0.00000  -0.03288  -0.03341   1.87723
    A5        1.91063   0.00569   0.00000   0.03288   0.03233   1.94296
    A6        1.91063   0.00569   0.00000   0.03288   0.03233   1.94296
    A7        1.91063   0.00569   0.00000   0.03288   0.03233   1.94296
    A8        1.91063   0.00569   0.00000   0.03288   0.03233   1.94296
    A9        1.91063   0.00569   0.00000   0.03288   0.03233   1.94296
   A10        1.91063  -0.00569   0.00000  -0.03288  -0.03341   1.87723
   A11        1.91063  -0.00569   0.00000  -0.03288  -0.03341   1.87723
   A12        1.91063  -0.00569   0.00000  -0.03288  -0.03341   1.87723
    D1        2.09440  -0.00000   0.00000  -0.00000   0.00000   2.09440
    D2       -2.09440  -0.00000   0.00000  -0.00000   0.00000  -2.09440
    D3        0.00000   0.00000   0.00000  -0.00000   0.00000   0.00000
    D4        0.00000  -0.00000   0.00000  -0.00000  -0.00000   0.00000
    D5        2.09440  -0.00000   0.00000  -0.00000   0.00000   2.09440
    D6       -2.09440   0.00000   0.00000  -0.00000   0.00000  -2.09440
    D7       -2.09440  -0.00000   0.00000  -0.00000   0.00000  -2.09440
    D8        0.00000  -0.00000   0.00000   0.00000   0.00000   0.00000
    D9        2.09440   0.00000   0.00000   0.00000   0.00000   2.09440
         Item               Value     Threshold  Converged?
 Maximum Force            0.024104     0.000450     NO 
 RMS     Force            0.012793     0.000300     NO 
 Maximum Displacement     0.118255     0.001800     NO 
 RMS     Displacement     0.060219     0.001200     NO 
 Predicted change in Energy=-6.836351D-03
 GradGradGradGradGradGradGradGradGradGradGradGradGradGradGradGradGradGrad

                          Input orientation:                          
 ---------------------------------------------------------------------
 Center     Atomic      Atomic             Coordinates (Angstroms)
 Number     Number       Type             X           Y           Z
 ---------------------------------------------------------------------
      1          6           0       -1.146681   -0.472119   -0.016893
      2          1           0       -1.280496   -1.551101    0.169411
      3          1           0       -0.441325   -0.364664   -0.858168
      4          1           0       -2.119352   -0.067857   -0.344464
      5          6           0       -0.619546    0.273344    1.274298
      6          1           0        0.353229    0.758976    1.088051
      7          1           0       -1.324798    1.055782    1.601755
      8          1           0       -0.485942   -0.427461    2.115630
 ---------------------------------------------------------------------
                    Distance matrix (angstroms):
                    1          2          3          4          5
     1  C    0.000000
     2  H    1.103095   0.000000
     3  H    1.103095   1.779820   0.000000
     4  H    1.103095   1.779820   1.779820   0.000000
     5  C    1.581379   2.232986   2.232986   2.232986   0.000000
     6  H    2.232986   2.974796   2.383621   2.974796   1.103095
     7  H    2.232986   2.974796   2.974796   2.383621   1.103095
     8  H    2.232986   2.383621   2.974796   2.974796   1.103095
                    6          7          8
     6  H    0.000000
     7  H    1.779820   0.000000
     8  H    1.779820   1.779820   0.000000
 Stoichiometry    C2H6
 Framework group  D3H[C3(C.C),3SGV(H2)]
 Deg. of freedom     3
 Full point group                 D3H     NOp  12
 Largest Abelian subgroup         C2V     NOp   4
 Largest concise Abelian subgroup C2V     NOp   4
                         Standard orientation:                         
 ---------------------------------------------------------------------
 Center     Atomic      Atomic             Coordinates (Angstroms)
 Number     Number       Type             X           Y           Z
 ---------------------------------------------------------------------
      1          6           0       -0.000000   -0.000000    0.790689
      2          1           0       -0.000000    1.027580    1.191811
      3          1           0        0.889910   -0.513790    1.191811
      4          1           0       -0.889910   -0.513790    1.191811
      5          6           0        0.000000    0.000000   -0.790689
      6          1           0        0.889910   -0.513790   -1.191811
      7          1           0       -0.889910   -0.513790   -1.191811
      8          1           0        0.000000    1.027580   -1.191811
 ---------------------------------------------------------------------
 Rotational constants (GHZ):          79.1497967          18.8670990          18.8670990
 Standard basis: STO-3G (5D, 7F)
 There are     6 symmetry adapted cartesian basis functions of A1  symmetry.
 There are     2 symmetry adapted cartesian basis functions of A2  symmetry.
 There are     2 symmetry adapted cartesian basis functions of B1  symmetry.
 There are     6 symmetry adapted cartesian basis functions of B2  symmetry.
 There are     6 symmetry adapted basis functions of A1  symmetry.
 There are     2 symmetry adapted basis functions of A2  symmetry.
 There are     2 symmetry adapted basis functions of B1  symmetry.
 There are     6 symmetry adapted basis functions of B2  symmetry.
    16 basis functions,    48 primitive gaussians,    16 cartesian basis functions
     9 alpha electrons        9 beta electrons
       nuclear repulsion energy        41.3652393266 Hartrees.
 NAtoms=    8 NActive=    8 NUniq=    2 SFac= 4.00D+00 NAtFMM=   60 NAOKFM=F Big=F
 Integral buffers will be    131072 words long.
 Raffenetti 2 integral format.
 Two-electron integral symmetry is turned on.
 One-electron integrals computed using PRISM.
 NBasis=    16 RedAO= T EigKep=  2.19D-01  NBF=     6     2     2     6
 NBsUse=    16 1.00D-06 EigRej= -1.00D+00 NBFU=     6     2     2     6
 Initial guess from the checkpoint file:  "Etano.chk"
 B after Tr=    -0.000000   -0.000000    0.000000
         Rot=    1.000000   -0.000000    0.000000   -0.000000 Ang=   0.00 deg.
 Initial guess orbital symmetries:
       Occupied  (A2") (A1') (A1') (A2") (E') (E') (A1') (E") (E")
       Virtual   (E') (E') (A2") (A1') (A2") (E") (E")
 ExpMin= 1.69D-01 ExpMax= 7.16D+01 ExpMxC= 7.16D+01 IAcc=3 IRadAn=         5 AccDes= 0.00D+00
 Harris functional with IExCor=  402 and IRadAn=       5 diagonalized for initial guess.
 HarFok:  IExCor=  402 AccDes= 0.00D+00 IRadAn=         5 IDoV= 1 UseB2=F ITyADJ=14
 ICtDFT=  3500011 ScaDFX=  1.000000  1.000000  1.000000  1.000000
 FoFCou: FMM=F IPFlag=           0 FMFlag=      100000 FMFlg1=           0
         NFxFlg=           0 DoJE=T BraDBF=F KetDBF=T FulRan=T
         wScrn=  0.000000 ICntrl=       500 IOpCl=  0 I1Cent=   200000004 NGrid=           0
         NMat0=    1 NMatS0=      1 NMatT0=    0 NMatD0=    1 NMtDS0=    0 NMtDT0=    0
 Petite list used in FoFCou.
 Keep R1 ints in memory in symmetry-blocked form, NReq=873449.
 Requested convergence on RMS density matrix=1.00D-08 within 128 cycles.
 Requested convergence on MAX density matrix=1.00D-06.
 Requested convergence on             energy=1.00D-06.
 No special actions if energy rises.
 Integral accuracy reduced to 1.0D-05 until final iterations.
 Initial convergence to 1.0D-05 achieved.  Increase integral accuracy.
 SCF Done:  E(RB3LYP) =  -78.8814495809     A.U. after    7 cycles
            NFock=  7  Conv=0.69D-08     -V/T= 2.0178
 Calling FoFJK, ICntrl=      2127 FMM=F ISym2X=1 I1Cent= 0 IOpClX= 0 NMat=1 NMatS=1 NMatT=0.
 ***** Axes restored to original set *****
 -------------------------------------------------------------------
 Center     Atomic                   Forces (Hartrees/Bohr)
 Number     Number              X              Y              Z
 -------------------------------------------------------------------
      1        6           0.002088370    0.002953323    0.005115354
      2        1           0.000636726    0.002303958    0.000748706
      3        1          -0.000687012    0.000432430    0.002369646
      4        1           0.001959968   -0.000035763    0.001559312
      5        6          -0.002088370   -0.002953323   -0.005115354
      6        1          -0.001960133   -0.001367987   -0.000748797
      7        1           0.000686847   -0.001836180   -0.001559131
      8        1          -0.000636395    0.000503542   -0.002369737
 -------------------------------------------------------------------
 Cartesian Forces:  Max     0.005115354 RMS     0.002199865

 GradGradGradGradGradGradGradGradGradGradGradGradGradGradGradGradGradGrad
 Berny optimization.
 Using GEDIIS/GDIIS optimizer.
 FormGI is forming the generalized inverse of G from B-inverse, IUseBI=4.
 Internal  Forces:  Max     0.011993945 RMS     0.002606860
 Search for a local minimum.
 Step number   2 out of a maximum of   38 on scan point     1 out of    37
 All quantities printed in internal units (Hartrees-Bohrs-Radians)
 Mixed Optimization -- RFO/linear search
 Update second derivatives using D2CorX and points    1    2
 DE= -5.21D-03 DEPred=-6.84D-03 R= 7.63D-01
 TightC=F SS=  1.41D+00  RLast= 2.06D-01 DXNew= 5.0454D-01 6.1882D-01
 Trust test= 7.63D-01 RLast= 2.06D-01 DXMaxT set to 5.05D-01
 ITU=  1  0
 Use linear search instead of GDIIS.
     Eigenvalues ---    0.01628   0.05377   0.05377   0.05377   0.16000
     Eigenvalues ---    0.16000   0.16000   0.16000   0.16000   0.16691
     Eigenvalues ---    0.30128   0.37230   0.37230   0.37230   0.37230
     Eigenvalues ---    0.37230   0.413041000.000001000.000001000.00000
     Eigenvalues --- 1000.000001000.000001000.000001000.000001000.00000
     Eigenvalues --- 1000.000001000.000001000.00000
 RFO step:  Lambda=-2.10169411D-04 EMin= 1.62770874D-02
 Quartic linear search produced a step of -0.15725.
 Iteration  1 RMS(Cart)=  0.01487702 RMS(Int)=  0.00004474
 Iteration  2 RMS(Cart)=  0.00001821 RMS(Int)=  0.00004106
 Iteration  3 RMS(Cart)=  0.00000000 RMS(Int)=  0.00004106
 Iteration  1 RMS(Cart)=  0.00000000 RMS(Int)=  0.00000000
 ClnCor:  largest displacement from symmetrization is 2.01D-09 for atom     6.
 Variable       Old X    -DE/DX   Delta X   Delta X   Delta X     New X
                                 (Linear)    (Quad)   (Total)
    R1        2.08455  -0.00220  -0.00983   0.00554  -0.00429   2.08026
    R2        2.08455  -0.00220  -0.00983   0.00554  -0.00429   2.08026
    R3        2.08455  -0.00220  -0.00983   0.00554  -0.00429   2.08026
    R4        2.98837  -0.01199  -0.01230  -0.02239  -0.03468   2.95369
    R5        2.08455  -0.00220  -0.00983   0.00554  -0.00429   2.08026
    R6        2.08455  -0.00220  -0.00983   0.00554  -0.00429   2.08026
    R7        2.08455  -0.00220  -0.00983   0.00554  -0.00429   2.08026
    A1        1.87723   0.00124   0.00525   0.00105   0.00637   1.88360
    A2        1.87723   0.00124   0.00525   0.00105   0.00637   1.88360
    A3        1.94296  -0.00116  -0.00508  -0.00099  -0.00601   1.93695
    A4        1.87723   0.00124   0.00525   0.00105   0.00637   1.88360
    A5        1.94296  -0.00116  -0.00508  -0.00099  -0.00601   1.93695
    A6        1.94296  -0.00116  -0.00508  -0.00099  -0.00601   1.93695
    A7        1.94296  -0.00116  -0.00508  -0.00099  -0.00601   1.93695
    A8        1.94296  -0.00116  -0.00508  -0.00099  -0.00601   1.93695
    A9        1.94296  -0.00116  -0.00508  -0.00099  -0.00601   1.93695
   A10        1.87723   0.00124   0.00525   0.00105   0.00637   1.88360
   A11        1.87723   0.00124   0.00525   0.00105   0.00637   1.88360
   A12        1.87723   0.00124   0.00525   0.00105   0.00637   1.88360
    D1        2.09440  -0.00000   0.00000   0.00000   0.00000   2.09440
    D2       -2.09440  -0.00000   0.00000   0.00000   0.00000  -2.09440
    D3        0.00000   0.00000   0.00000   0.00000   0.00000   0.00000
    D4        0.00000  -0.00000   0.00000   0.00000   0.00000   0.00000
    D5        2.09440  -0.00000  -0.00000   0.00000  -0.00000   2.09440
    D6       -2.09440   0.00000  -0.00000   0.00000  -0.00000  -2.09440
    D7       -2.09440  -0.00000   0.00000   0.00000   0.00000  -2.09440
    D8        0.00000  -0.00000   0.00000   0.00000   0.00000   0.00000
    D9        2.09440  -0.00000   0.00000   0.00000   0.00000   2.09440
         Item               Value     Threshold  Converged?
 Maximum Force            0.011994     0.000450     NO 
 RMS     Force            0.002655     0.000300     NO 
 Maximum Displacement     0.025208     0.001800     NO 
 RMS     Displacement     0.014888     0.001200     NO 
 Predicted change in Energy=-2.670151D-04
 GradGradGradGradGradGradGradGradGradGradGradGradGradGradGradGradGradGrad

                          Input orientation:                          
 ---------------------------------------------------------------------
 Center     Atomic      Atomic             Coordinates (Angstroms)
 Number     Number       Type             X           Y           Z
 ---------------------------------------------------------------------
      1          6           0       -1.143623   -0.467793   -0.009400
      2          1           0       -1.275105   -1.543713    0.182750
      3          1           0       -0.435713   -0.356962   -0.845100
      4          1           0       -2.114183   -0.060077   -0.331261
      5          6           0       -0.622605    0.269018    1.266805
      6          1           0        0.348060    0.751431    1.074712
      7          1           0       -1.330410    1.048316    1.588551
      8          1           0       -0.491332   -0.435320    2.102562
 ---------------------------------------------------------------------
                    Distance matrix (angstroms):
                    1          2          3          4          5
     1  C    0.000000
     2  H    1.100824   0.000000
     3  H    1.100824   1.780290   0.000000
     4  H    1.100824   1.780290   1.780290   0.000000
     5  C    1.563026   2.210639   2.210639   2.210639   0.000000
     6  H    2.210639   2.949229   2.351279   2.949229   1.100824
     7  H    2.210639   2.949229   2.949229   2.351279   1.100824
     8  H    2.210639   2.351279   2.949229   2.949229   1.100824
                    6          7          8
     6  H    0.000000
     7  H    1.780290   0.000000
     8  H    1.780290   1.780290   0.000000
 Stoichiometry    C2H6
 Framework group  D3H[C3(C.C),3SGV(H2)]
 Deg. of freedom     3
 Full point group                 D3H     NOp  12
 Largest Abelian subgroup         C2V     NOp   4
 Largest concise Abelian subgroup C2V     NOp   4
                         Standard orientation:                         
 ---------------------------------------------------------------------
 Center     Atomic      Atomic             Coordinates (Angstroms)
 Number     Number       Type             X           Y           Z
 ---------------------------------------------------------------------
      1          6           0        0.000000   -0.000000    0.781513
      2          1           0       -0.000000    1.027851    1.175640
      3          1           0        0.890145   -0.513926    1.175640
      4          1           0       -0.890145   -0.513926    1.175640
      5          6           0        0.000000   -0.000000   -0.781513
      6          1           0        0.890145   -0.513926   -1.175640
      7          1           0       -0.890145   -0.513926   -1.175640
      8          1           0        0.000000    1.027851   -1.175640
 ---------------------------------------------------------------------
 Rotational constants (GHZ):          79.1079887          19.2817681          19.2817681
 Standard basis: STO-3G (5D, 7F)
 There are     6 symmetry adapted cartesian basis functions of A1  symmetry.
 There are     2 symmetry adapted cartesian basis functions of A2  symmetry.
 There are     2 symmetry adapted cartesian basis functions of B1  symmetry.
 There are     6 symmetry adapted cartesian basis functions of B2  symmetry.
 There are     6 symmetry adapted basis functions of A1  symmetry.
 There are     2 symmetry adapted basis functions of A2  symmetry.
 There are     2 symmetry adapted basis functions of B1  symmetry.
 There are     6 symmetry adapted basis functions of B2  symmetry.
    16 basis functions,    48 primitive gaussians,    16 cartesian basis functions
     9 alpha electrons        9 beta electrons
       nuclear repulsion energy        41.6464944626 Hartrees.
 NAtoms=    8 NActive=    8 NUniq=    2 SFac= 4.00D+00 NAtFMM=   60 NAOKFM=F Big=F
 Integral buffers will be    131072 words long.
 Raffenetti 2 integral format.
 Two-electron integral symmetry is turned on.
 One-electron integrals computed using PRISM.
 NBasis=    16 RedAO= T EigKep=  2.15D-01  NBF=     6     2     2     6
 NBsUse=    16 1.00D-06 EigRej= -1.00D+00 NBFU=     6     2     2     6
 Initial guess from the checkpoint file:  "Etano.chk"
 B after Tr=    -0.000000   -0.000000   -0.000000
         Rot=    1.000000    0.000000   -0.000000   -0.000000 Ang=   0.00 deg.
 Initial guess orbital symmetries:
       Occupied  (A2") (A1') (A1') (A2") (E') (E') (A1') (E") (E")
       Virtual   (E') (E') (A2") (A1') (A2") (E") (E")
 ExpMin= 1.69D-01 ExpMax= 7.16D+01 ExpMxC= 7.16D+01 IAcc=3 IRadAn=         5 AccDes= 0.00D+00
 Harris functional with IExCor=  402 and IRadAn=       5 diagonalized for initial guess.
 HarFok:  IExCor=  402 AccDes= 0.00D+00 IRadAn=         5 IDoV= 1 UseB2=F ITyADJ=14
 ICtDFT=  3500011 ScaDFX=  1.000000  1.000000  1.000000  1.000000
 FoFCou: FMM=F IPFlag=           0 FMFlag=      100000 FMFlg1=           0
         NFxFlg=           0 DoJE=T BraDBF=F KetDBF=T FulRan=T
         wScrn=  0.000000 ICntrl=       500 IOpCl=  0 I1Cent=   200000004 NGrid=           0
         NMat0=    1 NMatS0=      1 NMatT0=    0 NMatD0=    1 NMtDS0=    0 NMtDT0=    0
 Petite list used in FoFCou.
 Keep R1 ints in memory in symmetry-blocked form, NReq=873449.
 Requested convergence on RMS density matrix=1.00D-08 within 128 cycles.
 Requested convergence on MAX density matrix=1.00D-06.
 Requested convergence on             energy=1.00D-06.
 No special actions if energy rises.
 Integral accuracy reduced to 1.0D-05 until final iterations.
 Initial convergence to 1.0D-05 achieved.  Increase integral accuracy.
 SCF Done:  E(RB3LYP) =  -78.8817098595     A.U. after    7 cycles
            NFock=  7  Conv=0.86D-08     -V/T= 2.0175
 Calling FoFJK, ICntrl=      2127 FMM=F ISym2X=1 I1Cent= 0 IOpClX= 0 NMat=1 NMatS=1 NMatT=0.
 ***** Axes restored to original set *****
 -------------------------------------------------------------------
 Center     Atomic                   Forces (Hartrees/Bohr)
 Number     Number              X              Y              Z
 -------------------------------------------------------------------
      1        6          -0.000029481   -0.000041692   -0.000072213
      2        1          -0.000078486    0.000585832   -0.000594858
      3        1          -0.000735703   -0.000343354    0.000209916
      4        1           0.000578484   -0.000575805   -0.000192404
      5        6           0.000029481    0.000041692    0.000072213
      6        1          -0.000578566   -0.000121136    0.000594813
      7        1           0.000735621   -0.000353587    0.000192494
      8        1           0.000078650    0.000808051   -0.000209960
 -------------------------------------------------------------------
 Cartesian Forces:  Max     0.000808051 RMS     0.000420066

 GradGradGradGradGradGradGradGradGradGradGradGradGradGradGradGradGradGrad
 Berny optimization.
 Using GEDIIS/GDIIS optimizer.
 FormGI is forming the generalized inverse of G from B-inverse, IUseBI=4.
 Internal  Forces:  Max     0.000795544 RMS     0.000481044
 Search for a local minimum.
 Step number   3 out of a maximum of   38 on scan point     1 out of    37
 All quantities printed in internal units (Hartrees-Bohrs-Radians)
 Mixed Optimization -- En-DIIS/RFO-DIIS
 Update second derivatives using D2CorX and points    1    2    3
 DE= -2.60D-04 DEPred=-2.67D-04 R= 9.75D-01
 TightC=F SS=  1.41D+00  RLast= 4.21D-02 DXNew= 8.4853D-01 1.2633D-01
 Trust test= 9.75D-01 RLast= 4.21D-02 DXMaxT set to 5.05D-01
 ITU=  1  1  0
 Use linear search instead of GDIIS.
     Eigenvalues ---    0.01651   0.05441   0.05441   0.05441   0.16000
     Eigenvalues ---    0.16000   0.16000   0.16000   0.16000   0.17446
     Eigenvalues ---    0.35367   0.36129   0.37230   0.37230   0.37230
     Eigenvalues ---    0.37230   0.372301000.000001000.000001000.00000
     Eigenvalues --- 1000.000001000.000001000.000001000.000001000.00000
     Eigenvalues --- 1000.000001000.000001000.00000
 RFO step:  Lambda=-2.06232721D-05 EMin= 1.65105588D-02
 Quartic linear search produced a step of -0.07710.
 Iteration  1 RMS(Cart)=  0.00275562 RMS(Int)=  0.00000463
 Iteration  2 RMS(Cart)=  0.00000478 RMS(Int)=  0.00000117
 Iteration  3 RMS(Cart)=  0.00000000 RMS(Int)=  0.00000117
 Iteration  1 RMS(Cart)=  0.00000000 RMS(Int)=  0.00000000
 ClnCor:  largest displacement from symmetrization is 1.54D-09 for atom     8.
 Variable       Old X    -DE/DX   Delta X   Delta X   Delta X     New X
                                 (Linear)    (Quad)   (Total)
    R1        2.08026  -0.00067   0.00033  -0.00222  -0.00189   2.07837
    R2        2.08026  -0.00067   0.00033  -0.00222  -0.00189   2.07837
    R3        2.08026  -0.00067   0.00033  -0.00222  -0.00189   2.07837
    R4        2.95369   0.00080   0.00267  -0.00185   0.00083   2.95452
    R5        2.08026  -0.00067   0.00033  -0.00222  -0.00189   2.07837
    R6        2.08026  -0.00067   0.00033  -0.00222  -0.00189   2.07837
    R7        2.08026  -0.00067   0.00033  -0.00222  -0.00189   2.07837
    A1        1.88360  -0.00053  -0.00049  -0.00220  -0.00269   1.88090
    A2        1.88360  -0.00053  -0.00049  -0.00220  -0.00269   1.88090
    A3        1.93695   0.00050   0.00046   0.00209   0.00255   1.93950
    A4        1.88360  -0.00053  -0.00049  -0.00220  -0.00269   1.88090
    A5        1.93695   0.00050   0.00046   0.00209   0.00255   1.93950
    A6        1.93695   0.00050   0.00046   0.00209   0.00255   1.93950
    A7        1.93695   0.00050   0.00046   0.00209   0.00255   1.93950
    A8        1.93695   0.00050   0.00046   0.00209   0.00255   1.93950
    A9        1.93695   0.00050   0.00046   0.00209   0.00255   1.93950
   A10        1.88360  -0.00053  -0.00049  -0.00220  -0.00269   1.88090
   A11        1.88360  -0.00053  -0.00049  -0.00220  -0.00269   1.88090
   A12        1.88360  -0.00053  -0.00049  -0.00220  -0.00269   1.88090
    D1        2.09440  -0.00000  -0.00000   0.00000   0.00000   2.09440
    D2       -2.09440  -0.00000   0.00000   0.00000   0.00000  -2.09440
    D3        0.00000   0.00000   0.00000   0.00000   0.00000   0.00000
    D4        0.00000   0.00000   0.00000   0.00000   0.00000   0.00000
    D5        2.09440   0.00000   0.00000   0.00000   0.00000   2.09440
    D6       -2.09440   0.00000   0.00000   0.00000   0.00000  -2.09440
    D7       -2.09440  -0.00000   0.00000   0.00000   0.00000  -2.09440
    D8        0.00000  -0.00000   0.00000   0.00000   0.00000   0.00000
    D9        2.09440  -0.00000   0.00000   0.00000   0.00000   2.09440
         Item               Value     Threshold  Converged?
 Maximum Force            0.000796     0.000450     NO 
 RMS     Force            0.000490     0.000300     NO 
 Maximum Displacement     0.005654     0.001800     NO 
 RMS     Displacement     0.002754     0.001200     NO 
 Predicted change in Energy=-1.228144D-05
 GradGradGradGradGradGradGradGradGradGradGradGradGradGradGradGradGradGrad

                          Input orientation:                          
 ---------------------------------------------------------------------
 Center     Atomic      Atomic             Coordinates (Angstroms)
 Number     Number       Type             X           Y           Z
 ---------------------------------------------------------------------
      1          6           0       -1.143696   -0.467896   -0.009579
      2          1           0       -1.275930   -1.543200    0.179758
      3          1           0       -0.438123   -0.358689   -0.846152
      4          1           0       -2.113424   -0.062365   -0.333282
      5          6           0       -0.622532    0.269121    1.266984
      6          1           0        0.347301    0.752038    1.077704
      7          1           0       -1.328000    1.048363    1.590573
      8          1           0       -0.490506   -0.432472    2.103614
 ---------------------------------------------------------------------
                    Distance matrix (angstroms):
                    1          2          3          4          5
     1  C    0.000000
     2  H    1.099824   0.000000
     3  H    1.099824   1.776929   0.000000
     4  H    1.099824   1.776929   1.776929   0.000000
     5  C    1.563464   2.212125   2.212125   2.212125   0.000000
     6  H    2.212125   2.951153   2.356232   2.951153   1.099824
     7  H    2.212125   2.951153   2.951153   2.356232   1.099824
     8  H    2.212125   2.356232   2.951153   2.951153   1.099824
                    6          7          8
     6  H    0.000000
     7  H    1.776929   0.000000
     8  H    1.776929   1.776929   0.000000
 Stoichiometry    C2H6
 Framework group  D3H[C3(C.C),3SGV(H2)]
 Deg. of freedom     3
 Full point group                 D3H     NOp  12
 Largest Abelian subgroup         C2V     NOp   4
 Largest concise Abelian subgroup C2V     NOp   4
                         Standard orientation:                         
 ---------------------------------------------------------------------
 Center     Atomic      Atomic             Coordinates (Angstroms)
 Number     Number       Type             X           Y           Z
 ---------------------------------------------------------------------
      1          6           0        0.000000   -0.000000    0.781732
      2          1           0       -0.000000    1.025911    1.178116
      3          1           0        0.888465   -0.512955    1.178116
      4          1           0       -0.888465   -0.512955    1.178116
      5          6           0        0.000000   -0.000000   -0.781732
      6          1           0        0.888465   -0.512955   -1.178116
      7          1           0       -0.888465   -0.512955   -1.178116
      8          1           0        0.000000    1.025911   -1.178116
 ---------------------------------------------------------------------
 Rotational constants (GHZ):          79.4075431          19.2586842          19.2586842
 Standard basis: STO-3G (5D, 7F)
 There are     6 symmetry adapted cartesian basis functions of A1  symmetry.
 There are     2 symmetry adapted cartesian basis functions of A2  symmetry.
 There are     2 symmetry adapted cartesian basis functions of B1  symmetry.
 There are     6 symmetry adapted cartesian basis functions of B2  symmetry.
 There are     6 symmetry adapted basis functions of A1  symmetry.
 There are     2 symmetry adapted basis functions of A2  symmetry.
 There are     2 symmetry adapted basis functions of B1  symmetry.
 There are     6 symmetry adapted basis functions of B2  symmetry.
    16 basis functions,    48 primitive gaussians,    16 cartesian basis functions
     9 alpha electrons        9 beta electrons
       nuclear repulsion energy        41.6542804498 Hartrees.
 NAtoms=    8 NActive=    8 NUniq=    2 SFac= 4.00D+00 NAtFMM=   60 NAOKFM=F Big=F
 Integral buffers will be    131072 words long.
 Raffenetti 2 integral format.
 Two-electron integral symmetry is turned on.
 One-electron integrals computed using PRISM.
 NBasis=    16 RedAO= T EigKep=  2.15D-01  NBF=     6     2     2     6
 NBsUse=    16 1.00D-06 EigRej= -1.00D+00 NBFU=     6     2     2     6
 Initial guess from the checkpoint file:  "Etano.chk"
 B after Tr=     0.000000    0.000000   -0.000000
         Rot=    1.000000    0.000000    0.000000   -0.000000 Ang=   0.00 deg.
 Initial guess orbital symmetries:
       Occupied  (A2") (A1') (A1') (A2") (E') (E') (A1') (E") (E")
       Virtual   (E') (E') (A2") (A1') (A2") (E") (E")
 Keep R1 ints in memory in symmetry-blocked form, NReq=873449.
 Requested convergence on RMS density matrix=1.00D-08 within 128 cycles.
 Requested convergence on MAX density matrix=1.00D-06.
 Requested convergence on             energy=1.00D-06.
 No special actions if energy rises.
 SCF Done:  E(RB3LYP) =  -78.8817210521     A.U. after    5 cycles
            NFock=  5  Conv=0.62D-08     -V/T= 2.0174
 Calling FoFJK, ICntrl=      2127 FMM=F ISym2X=1 I1Cent= 0 IOpClX= 0 NMat=1 NMatS=1 NMatT=0.
 ***** Axes restored to original set *****
 -------------------------------------------------------------------
 Center     Atomic                   Forces (Hartrees/Bohr)
 Number     Number              X              Y              Z
 -------------------------------------------------------------------
      1        6           0.000101553    0.000143614    0.000248750
      2        1          -0.000020722   -0.000166865    0.000028720
      3        1           0.000109018    0.000016565   -0.000130149
      4        1          -0.000150414    0.000062453   -0.000050728
      5        6          -0.000101553   -0.000143614   -0.000248750
      6        1           0.000150431    0.000075130   -0.000028711
      7        1          -0.000109002    0.000121018    0.000050710
      8        1           0.000020690   -0.000108300    0.000130158
 -------------------------------------------------------------------
 Cartesian Forces:  Max     0.000248750 RMS     0.000122512

 GradGradGradGradGradGradGradGradGradGradGradGradGradGradGradGradGradGrad
 Berny optimization.
 Using GEDIIS/GDIIS optimizer.
 FormGI is forming the generalized inverse of G from B-inverse, IUseBI=4.
 Internal  Forces:  Max     0.000170581 RMS     0.000082069
 Search for a local minimum.
 Step number   4 out of a maximum of   38 on scan point     1 out of    37
 All quantities printed in internal units (Hartrees-Bohrs-Radians)
 Mixed Optimization -- En-DIIS/RFO-DIIS
 Swapping is turned off.
 Update second derivatives using D2CorX and points    1    2    3    4
 DE= -1.12D-05 DEPred=-1.23D-05 R= 9.11D-01
 TightC=F SS=  1.41D+00  RLast= 1.02D-02 DXNew= 8.4853D-01 3.0674D-02
 Trust test= 9.11D-01 RLast= 1.02D-02 DXMaxT set to 5.05D-01
 ITU=  1  1  1  0
     Eigenvalues ---    0.01641   0.05414   0.05414   0.05414   0.16000
     Eigenvalues ---    0.16000   0.16000   0.16000   0.16000   0.16107
     Eigenvalues ---    0.35424   0.37230   0.37230   0.37230   0.37230
     Eigenvalues ---    0.37230   0.420691000.000001000.000001000.00000
     Eigenvalues --- 1000.000001000.000001000.000001000.000001000.00000
     Eigenvalues --- 1000.000001000.000001000.00000
 En-DIIS/RFO-DIIS/Sim-DIIS IScMMF=       -3 using points:     4    3
 RFO step:  Lambda=-4.59474761D-07.
 DidBck=F Rises=F RFO-DIIS coefs:    0.97045    0.02955
 Iteration  1 RMS(Cart)=  0.00016788 RMS(Int)=  0.00000006
 Iteration  2 RMS(Cart)=  0.00000001 RMS(Int)=  0.00000006
 Iteration  1 RMS(Cart)=  0.00000000 RMS(Int)=  0.00000000
 ClnCor:  largest displacement from symmetrization is 3.73D-09 for atom     7.
 Variable       Old X    -DE/DX   Delta X   Delta X   Delta X     New X
                                 (Linear)    (Quad)   (Total)
    R1        2.07837   0.00017   0.00006   0.00035   0.00041   2.07877
    R2        2.07837   0.00017   0.00006   0.00035   0.00041   2.07877
    R3        2.07837   0.00017   0.00006   0.00035   0.00041   2.07877
    R4        2.95452  -0.00012  -0.00002  -0.00032  -0.00035   2.95417
    R5        2.07837   0.00017   0.00006   0.00035   0.00041   2.07877
    R6        2.07837   0.00017   0.00006   0.00035   0.00041   2.07877
    R7        2.07837   0.00017   0.00006   0.00035   0.00041   2.07877
    A1        1.88090  -0.00000   0.00008  -0.00014  -0.00006   1.88084
    A2        1.88090  -0.00000   0.00008  -0.00014  -0.00006   1.88084
    A3        1.93950   0.00000  -0.00008   0.00013   0.00006   1.93956
    A4        1.88090  -0.00000   0.00008  -0.00014  -0.00006   1.88084
    A5        1.93950   0.00000  -0.00008   0.00013   0.00006   1.93956
    A6        1.93950   0.00000  -0.00008   0.00013   0.00006   1.93956
    A7        1.93950   0.00000  -0.00008   0.00013   0.00006   1.93956
    A8        1.93950   0.00000  -0.00008   0.00013   0.00006   1.93956
    A9        1.93950   0.00000  -0.00008   0.00013   0.00006   1.93956
   A10        1.88090  -0.00000   0.00008  -0.00014  -0.00006   1.88084
   A11        1.88090  -0.00000   0.00008  -0.00014  -0.00006   1.88084
   A12        1.88090  -0.00000   0.00008  -0.00014  -0.00006   1.88084
    D1        2.09440  -0.00000   0.00000  -0.00000  -0.00000   2.09440
    D2       -2.09440  -0.00000   0.00000  -0.00000   0.00000  -2.09440
    D3        0.00000  -0.00000   0.00000  -0.00000  -0.00000  -0.00000
    D4        0.00000   0.00000   0.00000  -0.00000   0.00000   0.00000
    D5        2.09440   0.00000   0.00000  -0.00000   0.00000   2.09440
    D6       -2.09440   0.00000   0.00000  -0.00000   0.00000  -2.09440
    D7       -2.09440  -0.00000   0.00000  -0.00000   0.00000  -2.09440
    D8        0.00000  -0.00000   0.00000   0.00000   0.00000   0.00000
    D9        2.09440  -0.00000   0.00000  -0.00000   0.00000   2.09440
         Item               Value     Threshold  Converged?
 Maximum Force            0.000171     0.000450     YES
 RMS     Force            0.000084     0.000300     YES
 Maximum Displacement     0.000332     0.001800     YES
 RMS     Displacement     0.000168     0.001200     YES
 Predicted change in Energy=-2.297376D-07
 Optimization completed.
    -- Stationary point found.
                           ----------------------------
                           !   Optimized Parameters   !
                           ! (Angstroms and Degrees)  !
 --------------------------                            --------------------------
 ! Name  Definition              Value          Derivative Info.                !
 --------------------------------------------------------------------------------
 ! R1    R(1,2)                  1.0998         -DE/DX =    0.0002              !
 ! R2    R(1,3)                  1.0998         -DE/DX =    0.0002              !
 ! R3    R(1,4)                  1.0998         -DE/DX =    0.0002              !
 ! R4    R(1,5)                  1.5635         -DE/DX =   -0.0001              !
 ! R5    R(5,6)                  1.0998         -DE/DX =    0.0002              !
 ! R6    R(5,7)                  1.0998         -DE/DX =    0.0002              !
 ! R7    R(5,8)                  1.0998         -DE/DX =    0.0002              !
 ! A1    A(2,1,3)              107.7678         -DE/DX =    0.0                 !
 ! A2    A(2,1,4)              107.7678         -DE/DX =    0.0                 !
 ! A3    A(2,1,5)              111.1252         -DE/DX =    0.0                 !
 ! A4    A(3,1,4)              107.7678         -DE/DX =    0.0                 !
 ! A5    A(3,1,5)              111.1252         -DE/DX =    0.0                 !
 ! A6    A(4,1,5)              111.1252         -DE/DX =    0.0                 !
 ! A7    A(1,5,6)              111.1252         -DE/DX =    0.0                 !
 ! A8    A(1,5,7)              111.1252         -DE/DX =    0.0                 !
 ! A9    A(1,5,8)              111.1252         -DE/DX =    0.0                 !
 ! A10   A(6,5,7)              107.7678         -DE/DX =    0.0                 !
 ! A11   A(6,5,8)              107.7678         -DE/DX =    0.0                 !
 ! A12   A(7,5,8)              107.7678         -DE/DX =    0.0                 !
 ! D1    D(2,1,5,6)            120.0            -DE/DX =    0.0                 !
 ! D2    D(2,1,5,7)           -120.0            -DE/DX =    0.0                 !
 ! D3    D(2,1,5,8)              0.0            -DE/DX =    0.0                 !
 ! D4    D(3,1,5,6)              0.0            -DE/DX =    0.0                 !
 ! D5    D(3,1,5,7)            120.0            -DE/DX =    0.0                 !
 ! D6    D(3,1,5,8)           -120.0            -DE/DX =    0.0                 !
 ! D7    D(4,1,5,6)           -120.0            -DE/DX =    0.0                 !
 ! D8    D(4,1,5,7)              0.0            -DE/DX =    0.0                 !
 ! D9    D(4,1,5,8)            120.0            -DE/DX =    0.0                 !
 --------------------------------------------------------------------------------
 Iteration  1 RMS(Cart)=  0.01368614 RMS(Int)=  0.02534586
 Iteration  2 RMS(Cart)=  0.00064139 RMS(Int)=  0.02534151
 Iteration  3 RMS(Cart)=  0.00001132 RMS(Int)=  0.02534151
 Iteration  4 RMS(Cart)=  0.00000045 RMS(Int)=  0.02534151
 Iteration  1 RMS(Cart)=  0.00808386 RMS(Int)=  0.01495350
 Iteration  2 RMS(Cart)=  0.00477821 RMS(Int)=  0.01666244
 Iteration  3 RMS(Cart)=  0.00282199 RMS(Int)=  0.01898015
 Iteration  4 RMS(Cart)=  0.00166540 RMS(Int)=  0.02065461
 Iteration  5 RMS(Cart)=  0.00098232 RMS(Int)=  0.02172273
 Iteration  6 RMS(Cart)=  0.00057920 RMS(Int)=  0.02237614
 Iteration  7 RMS(Cart)=  0.00034144 RMS(Int)=  0.02276875
 Iteration  8 RMS(Cart)=  0.00020126 RMS(Int)=  0.02300260
 Iteration  9 RMS(Cart)=  0.00011862 RMS(Int)=  0.02314125
 Iteration 10 RMS(Cart)=  0.00006991 RMS(Int)=  0.02322323
 Iteration 11 RMS(Cart)=  0.00004120 RMS(Int)=  0.02327165
 Iteration 12 RMS(Cart)=  0.00002428 RMS(Int)=  0.02330021
 Iteration 13 RMS(Cart)=  0.00001431 RMS(Int)=  0.02331706
 Iteration 14 RMS(Cart)=  0.00000843 RMS(Int)=  0.02332699
 Iteration 15 RMS(Cart)=  0.00000497 RMS(Int)=  0.02333284
 Iteration 16 RMS(Cart)=  0.00000293 RMS(Int)=  0.02333629
 Iteration 17 RMS(Cart)=  0.00000173 RMS(Int)=  0.02333833
 Iteration 18 RMS(Cart)=  0.00000102 RMS(Int)=  0.02333953
 Iteration 19 RMS(Cart)=  0.00000060 RMS(Int)=  0.02334023
 GradGradGradGradGradGradGradGradGradGradGradGradGradGradGradGradGradGrad

                          Input orientation:                          
 ---------------------------------------------------------------------
 Center     Atomic      Atomic             Coordinates (Angstroms)
 Number     Number       Type             X           Y           Z
 ---------------------------------------------------------------------
      1          6           0       -1.156018   -0.483113    0.004768
      2          1           0       -1.287168   -1.559675    0.188899
      3          1           0       -0.448241   -0.369903   -0.829693
      4          1           0       -2.087533   -0.030470   -0.366741
      5          6           0       -0.612289    0.285808    1.252637
      6          1           0        0.359092    0.768122    1.068564
      7          1           0       -1.349451    1.013326    1.624032
      8          1           0       -0.483303   -0.419197    2.087155
 ---------------------------------------------------------------------
                    Distance matrix (angstroms):
                    1          2          3          4          5
     1  C    0.000000
     2  H    1.100041   0.000000
     3  H    1.100041   1.776762   0.000000
     4  H    1.100284   1.813226   1.736898   0.000000
     5  C    1.563348   2.234459   2.189284   2.213315   0.000000
     6  H    2.234459   2.983726   2.355900   2.946833   1.100041
     7  H    2.213315   2.946833   2.957409   2.365894   1.100284
     8  H    2.189284   2.355900   2.917475   2.957409   1.100041
                    6          7          8
     6  H    0.000000
     7  H    1.813226   0.000000
     8  H    1.776762   1.736898   0.000000
 Stoichiometry    C2H6
 Framework group  C1[X(C2H6)]
 Deg. of freedom    18
 Full point group                 C1      NOp   1
 Omega: Change in point group or standard orientation.

 Old FWG=D03H [C3(C1.C1),3SGV(H2)]
 New FWG=C01  [X(C2H6)]
 Largest Abelian subgroup         C1      NOp   1
 Largest concise Abelian subgroup C1      NOp   1
                         Standard orientation:                         
 ---------------------------------------------------------------------
 Center     Atomic      Atomic             Coordinates (Angstroms)
 Number     Number       Type             X           Y           Z
 ---------------------------------------------------------------------
      1          6           0       -0.781604    0.010473   -0.000566
      2          1           0       -1.198008    0.889062    0.514002
      3          1           0       -1.157890   -0.887246    0.511878
      4          1           0       -1.180656   -0.073591   -1.022483
      5          6           0        0.781604   -0.010473   -0.000566
      6          1           0        1.198008   -0.889062    0.514002
      7          1           0        1.180656    0.073591   -1.022483
      8          1           0        1.157890    0.887246    0.511878
 ---------------------------------------------------------------------
 Rotational constants (GHZ):          79.4494382          19.2634025          19.2450254
 Standard basis: STO-3G (5D, 7F)
 There are    16 symmetry adapted cartesian basis functions of A   symmetry.
 There are    16 symmetry adapted basis functions of A   symmetry.
    16 basis functions,    48 primitive gaussians,    16 cartesian basis functions
     9 alpha electrons        9 beta electrons
       nuclear repulsion energy        41.6510950373 Hartrees.
 NAtoms=    8 NActive=    8 NUniq=    8 SFac= 1.00D+00 NAtFMM=   60 NAOKFM=F Big=F
 Integral buffers will be    131072 words long.
 Raffenetti 2 integral format.
 Two-electron integral symmetry is turned on.
 One-electron integrals computed using PRISM.
 NBasis=    16 RedAO= T EigKep=  2.15D-01  NBF=    16
 NBsUse=    16 1.00D-06 EigRej= -1.00D+00 NBFU=    16
 Initial guess from the checkpoint file:  "Etano.chk"
 B after Tr=    -0.000000   -0.000000    0.000000
         Rot=    0.683699   -0.185591    0.682317    0.180432 Ang= -93.73 deg.
 Keep R1 ints in memory in canonical form, NReq=872699.
 Requested convergence on RMS density matrix=1.00D-08 within 128 cycles.
 Requested convergence on MAX density matrix=1.00D-06.
 Requested convergence on             energy=1.00D-06.
 No special actions if energy rises.
 SCF Done:  E(RB3LYP) =  -78.8801011409     A.U. after    7 cycles
            NFock=  7  Conv=0.33D-08     -V/T= 2.0174
 Calling FoFJK, ICntrl=      2127 FMM=F ISym2X=0 I1Cent= 0 IOpClX= 0 NMat=1 NMatS=1 NMatT=0.
 ***** Axes restored to original set *****
 -------------------------------------------------------------------
 Center     Atomic                   Forces (Hartrees/Bohr)
 Number     Number              X              Y              Z
 -------------------------------------------------------------------
      1        6           0.008672901    0.012111994   -0.011001988
      2        1          -0.003508578    0.002069361    0.001592577
      3        1           0.002921407   -0.003971221   -0.000128096
      4        1          -0.004395584   -0.004992931    0.005006079
      5        6          -0.008531569   -0.012211950    0.011001999
      6        1          -0.003119915    0.002618600   -0.001593030
      7        1           0.003243706    0.005807589   -0.005006159
      8        1           0.004717633   -0.001431442    0.000128617
 -------------------------------------------------------------------
 Cartesian Forces:  Max     0.012211950 RMS     0.006162555

 GradGradGradGradGradGradGradGradGradGradGradGradGradGradGradGradGradGrad
 Berny optimization.
 FormGI is forming the generalized inverse of G from B-inverse, IUseBI=4.
 Internal  Forces:  Max     0.007622391 RMS     0.002753108
 Search for a local minimum.
 Step number   1 out of a maximum of   38 on scan point     2 out of    37
 All quantities printed in internal units (Hartrees-Bohrs-Radians)
 Mixed Optimization -- RFO/linear search
 Second derivative matrix not updated -- first step.
 ITU=  0
     Eigenvalues ---    0.01617   0.05060   0.05421   0.05718   0.16000
     Eigenvalues ---    0.16000   0.16000   0.16000   0.16000   0.16107
     Eigenvalues ---    0.35419   0.37230   0.37230   0.37230   0.37230
     Eigenvalues ---    0.37230   0.420671000.000001000.000001000.00000
     Eigenvalues --- 1000.000001000.000001000.000001000.000001000.00000
     Eigenvalues --- 1000.000001000.000001000.00000
 RFO step:  Lambda=-3.02979644D-03 EMin= 1.61676502D-02
 Linear search not attempted -- first point.
 Iteration  1 RMS(Cart)=  0.05547599 RMS(Int)=  0.00244894
 Iteration  2 RMS(Cart)=  0.00238265 RMS(Int)=  0.00062147
 Iteration  3 RMS(Cart)=  0.00000413 RMS(Int)=  0.00062147
 Iteration  4 RMS(Cart)=  0.00000000 RMS(Int)=  0.00062147
 Iteration  1 RMS(Cart)=  0.00001628 RMS(Int)=  0.00003007
 Iteration  2 RMS(Cart)=  0.00000962 RMS(Int)=  0.00003351
 Iteration  3 RMS(Cart)=  0.00000568 RMS(Int)=  0.00003818
 Iteration  4 RMS(Cart)=  0.00000336 RMS(Int)=  0.00004156
 Iteration  5 RMS(Cart)=  0.00000198 RMS(Int)=  0.00004372
 Iteration  6 RMS(Cart)=  0.00000117 RMS(Int)=  0.00004504
 Iteration  7 RMS(Cart)=  0.00000069 RMS(Int)=  0.00004584
 Variable       Old X    -DE/DX   Delta X   Delta X   Delta X     New X
                                 (Linear)    (Quad)   (Total)
    R1        2.07878  -0.00134   0.00000  -0.00366  -0.00366   2.07512
    R2        2.07878   0.00157   0.00000   0.00409   0.00409   2.08286
    R3        2.07923  -0.00002   0.00000  -0.00015  -0.00015   2.07908
    R4        2.95430  -0.00023   0.00000   0.00041   0.00041   2.95471
    R5        2.07878  -0.00134   0.00000  -0.00366  -0.00366   2.07512
    R6        2.07923  -0.00002   0.00000  -0.00015  -0.00015   2.07908
    R7        2.07878   0.00157   0.00000   0.00409   0.00409   2.08286
    A1        1.88010  -0.00010   0.00000   0.00133   0.00169   1.88180
    A2        1.93712  -0.00266   0.00000  -0.04441  -0.04580   1.89133
    A3        1.97056  -0.00284   0.00000  -0.03235  -0.03289   1.93767
    A4        1.81961   0.00346   0.00000   0.05233   0.05149   1.87109
    A5        1.90827   0.00277   0.00000   0.03351   0.03327   1.94153
    A6        1.94081   0.00001   0.00000  -0.00177  -0.00295   1.93786
    A7        1.97056  -0.00284   0.00000  -0.03235  -0.03289   1.93767
    A8        1.94081   0.00001   0.00000  -0.00177  -0.00295   1.93786
    A9        1.90827   0.00277   0.00000   0.03351   0.03327   1.94153
   A10        1.93712  -0.00266   0.00000  -0.04441  -0.04580   1.89133
   A11        1.88010  -0.00010   0.00000   0.00133   0.00169   1.88180
   A12        1.81961   0.00346   0.00000   0.05233   0.05149   1.87109
    D1        2.07631   0.00389   0.00000   0.17179   0.17092   2.24722
    D2       -2.01617  -0.00187   0.00000   0.08589   0.08546  -1.93071
    D3       -0.01632   0.00395   0.00000   0.16797   0.16788   0.15156
    D4       -0.01632   0.00395   0.00000   0.16797   0.16788   0.15156
    D5        2.17438  -0.00180   0.00000   0.08208   0.08243   2.25681
    D6       -2.10894   0.00402   0.00000   0.16415   0.16485  -1.94410
    D7       -2.01617  -0.00187   0.00000   0.08589   0.08546  -1.93071
    D8        0.17453  -0.00762   0.00000   0.00000   0.00001   0.17454
    D9        2.17438  -0.00180   0.00000   0.08208   0.08243   2.25681
         Item               Value     Threshold  Converged?
 Maximum Force            0.003450     0.000450     NO 
 RMS     Force            0.001619     0.000300     NO 
 Maximum Displacement     0.128966     0.001800     NO 
 RMS     Displacement     0.055514     0.001200     NO 
 Predicted change in Energy=-1.741837D-03
 GradGradGradGradGradGradGradGradGradGradGradGradGradGradGradGradGradGrad

                          Input orientation:                          
 ---------------------------------------------------------------------
 Center     Atomic      Atomic             Coordinates (Angstroms)
 Number     Number       Type             X           Y           Z
 ---------------------------------------------------------------------
      1          6           0       -1.144253   -0.469007   -0.008771
      2          1           0       -1.349200   -1.526404    0.205098
      3          1           0       -0.405411   -0.427150   -0.825604
      4          1           0       -2.069300   -0.005334   -0.382594
      5          6           0       -0.621670    0.270016    1.266176
      6          1           0        0.307057    0.815525    1.052356
      7          1           0       -1.367077    0.987761    1.639885
      8          1           0       -0.415057   -0.440507    2.083074
 ---------------------------------------------------------------------
                    Distance matrix (angstroms):
                    1          2          3          4          5
     1  C    0.000000
     2  H    1.098104   0.000000
     3  H    1.102204   1.778045   0.000000
     4  H    1.100204   1.782577   1.772769   0.000000
     5  C    1.563566   2.209596   2.215480   2.211310   0.000000
     6  H    2.209596   2.990930   2.361903   2.894816   1.098104
     7  H    2.211310   2.894816   3.000901   2.360036   1.100204
     8  H    2.215480   2.361903   2.908725   3.000901   1.102204
                    6          7          8
     6  H    0.000000
     7  H    1.782577   0.000000
     8  H    1.778045   1.772769   0.000000
 Stoichiometry    C2H6
 Framework group  C1[X(C2H6)]
 Deg. of freedom    18
 Full point group                 C1      NOp   1
 Largest Abelian subgroup         C1      NOp   1
 Largest concise Abelian subgroup C1      NOp   1
                         Standard orientation:                         
 ---------------------------------------------------------------------
 Center     Atomic      Atomic             Coordinates (Angstroms)
 Number     Number       Type             X           Y           Z
 ---------------------------------------------------------------------
      1          6           0       -0.781779    0.002631    0.000083
      2          1           0       -1.172555    0.928187    0.443335
      3          1           0       -1.183963   -0.844632    0.579090
      4          1           0       -1.176913   -0.085544   -1.022923
      5          6           0        0.781779   -0.002631    0.000083
      6          1           0        1.172555   -0.928187    0.443335
      7          1           0        1.176913    0.085544   -1.022923
      8          1           0        1.183963    0.844631    0.579090
 ---------------------------------------------------------------------
 Rotational constants (GHZ):          79.3295568          19.2611844          19.2551860
 Standard basis: STO-3G (5D, 7F)
 There are    16 symmetry adapted cartesian basis functions of A   symmetry.
 There are    16 symmetry adapted basis functions of A   symmetry.
    16 basis functions,    48 primitive gaussians,    16 cartesian basis functions
     9 alpha electrons        9 beta electrons
       nuclear repulsion energy        41.6470251566 Hartrees.
 NAtoms=    8 NActive=    8 NUniq=    8 SFac= 1.00D+00 NAtFMM=   60 NAOKFM=F Big=F
 Integral buffers will be    131072 words long.
 Raffenetti 2 integral format.
 Two-electron integral symmetry is turned on.
 One-electron integrals computed using PRISM.
 NBasis=    16 RedAO= T EigKep=  2.15D-01  NBF=    16
 NBsUse=    16 1.00D-06 EigRej= -1.00D+00 NBFU=    16
 Initial guess from the checkpoint file:  "Etano.chk"
 B after Tr=    -0.000000    0.000000   -0.000000
         Rot=    0.999988    0.000000   -0.000000    0.004823 Ang=   0.55 deg.
 ExpMin= 1.69D-01 ExpMax= 7.16D+01 ExpMxC= 7.16D+01 IAcc=3 IRadAn=         5 AccDes= 0.00D+00
 Harris functional with IExCor=  402 and IRadAn=       5 diagonalized for initial guess.
 HarFok:  IExCor=  402 AccDes= 0.00D+00 IRadAn=         5 IDoV= 1 UseB2=F ITyADJ=14
 ICtDFT=  3500011 ScaDFX=  1.000000  1.000000  1.000000  1.000000
 FoFCou: FMM=F IPFlag=           0 FMFlag=      100000 FMFlg1=           0
         NFxFlg=           0 DoJE=T BraDBF=F KetDBF=T FulRan=T
         wScrn=  0.000000 ICntrl=       500 IOpCl=  0 I1Cent=   200000004 NGrid=           0
         NMat0=    1 NMatS0=      1 NMatT0=    0 NMatD0=    1 NMtDS0=    0 NMtDT0=    0
 Petite list used in FoFCou.
 Keep R1 ints in memory in canonical form, NReq=872699.
 Requested convergence on RMS density matrix=1.00D-08 within 128 cycles.
 Requested convergence on MAX density matrix=1.00D-06.
 Requested convergence on             energy=1.00D-06.
 No special actions if energy rises.
 Integral accuracy reduced to 1.0D-05 until final iterations.
 Initial convergence to 1.0D-05 achieved.  Increase integral accuracy.
 SCF Done:  E(RB3LYP) =  -78.8819011447     A.U. after    8 cycles
            NFock=  8  Conv=0.20D-08     -V/T= 2.0175
 Calling FoFJK, ICntrl=      2127 FMM=F ISym2X=0 I1Cent= 0 IOpClX= 0 NMat=1 NMatS=1 NMatT=0.
 ***** Axes restored to original set *****
 -------------------------------------------------------------------
 Center     Atomic                   Forces (Hartrees/Bohr)
 Number     Number              X              Y              Z
 -------------------------------------------------------------------
      1        6           0.001983955    0.002497380   -0.001641314
      2        1          -0.001504440   -0.001183580   -0.000025967
      3        1          -0.000099844   -0.000748038    0.001921925
      4        1          -0.000427153   -0.000632825    0.000499628
      5        6          -0.001693877   -0.002702536    0.001641334
      6        1           0.000614739    0.001812816    0.000025906
      7        1           0.000454406    0.000613550   -0.000499626
      8        1           0.000672213    0.000343233   -0.001921886
 -------------------------------------------------------------------
 Cartesian Forces:  Max     0.002702536 RMS     0.001342499

 GradGradGradGradGradGradGradGradGradGradGradGradGradGradGradGradGradGrad
 Berny optimization.
 Using GEDIIS/GDIIS optimizer.
 FormGI is forming the generalized inverse of G from B-inverse, IUseBI=4.
 Internal  Forces:  Max     0.001519726 RMS     0.000796393
 Search for a local minimum.
 Step number   2 out of a maximum of   38 on scan point     2 out of    37
 All quantities printed in internal units (Hartrees-Bohrs-Radians)
 Mixed Optimization -- En-DIIS/RFO-DIIS
 Update second derivatives using D2CorX and points    1    2
 DE= -1.80D-03 DEPred=-1.74D-03 R= 1.03D+00
 TightC=F SS=  1.41D+00  RLast= 3.94D-01 DXNew= 8.4853D-01 1.1808D+00
 Trust test= 1.03D+00 RLast= 3.94D-01 DXMaxT set to 8.49D-01
 ITU=  1  0
 Use linear search instead of GDIIS.
     Eigenvalues ---    0.01465   0.05402   0.05416   0.05435   0.15991
     Eigenvalues ---    0.16000   0.16000   0.16000   0.16091   0.16630
     Eigenvalues ---    0.35415   0.37230   0.37230   0.37230   0.37230
     Eigenvalues ---    0.38342   0.420671000.000001000.000001000.00000
     Eigenvalues --- 1000.000001000.000001000.000001000.000001000.00000
     Eigenvalues --- 1000.000001000.000001000.00000
 RFO step:  Lambda=-1.25170659D-04 EMin= 1.46457969D-02
 Quartic linear search produced a step of  0.22662.
 Iteration  1 RMS(Cart)=  0.01685285 RMS(Int)=  0.00026581
 Iteration  2 RMS(Cart)=  0.00020860 RMS(Int)=  0.00016099
 Iteration  3 RMS(Cart)=  0.00000003 RMS(Int)=  0.00016099
 Iteration  1 RMS(Cart)=  0.00000427 RMS(Int)=  0.00000789
 Iteration  2 RMS(Cart)=  0.00000252 RMS(Int)=  0.00000879
 Iteration  3 RMS(Cart)=  0.00000149 RMS(Int)=  0.00001001
 Iteration  4 RMS(Cart)=  0.00000088 RMS(Int)=  0.00001090
 Variable       Old X    -DE/DX   Delta X   Delta X   Delta X     New X
                                 (Linear)    (Quad)   (Total)
    R1        2.07512   0.00142  -0.00083   0.00535   0.00452   2.07964
    R2        2.08286  -0.00152   0.00093  -0.00580  -0.00487   2.07799
    R3        2.07908  -0.00008  -0.00003  -0.00024  -0.00027   2.07881
    R4        2.95471  -0.00057   0.00009  -0.00214  -0.00205   2.95266
    R5        2.07512   0.00142  -0.00083   0.00535   0.00452   2.07964
    R6        2.07908  -0.00008  -0.00003  -0.00024  -0.00027   2.07881
    R7        2.08286  -0.00152   0.00093  -0.00580  -0.00487   2.07799
    A1        1.88180   0.00001   0.00038  -0.00030   0.00017   1.88197
    A2        1.89133  -0.00094  -0.01038  -0.00860  -0.01933   1.87200
    A3        1.93767   0.00079  -0.00745   0.00702  -0.00057   1.93710
    A4        1.87109   0.00093   0.01167   0.00799   0.01943   1.89052
    A5        1.94153  -0.00092   0.00754  -0.00761  -0.00015   1.94138
    A6        1.93786   0.00012  -0.00067   0.00139   0.00042   1.93828
    A7        1.93767   0.00079  -0.00745   0.00702  -0.00057   1.93710
    A8        1.93786   0.00012  -0.00067   0.00139   0.00042   1.93828
    A9        1.94153  -0.00092   0.00754  -0.00761  -0.00015   1.94138
   A10        1.89133  -0.00094  -0.01038  -0.00860  -0.01933   1.87200
   A11        1.88180   0.00001   0.00038  -0.00030   0.00017   1.88197
   A12        1.87109   0.00093   0.01167   0.00799   0.01943   1.89052
    D1        2.24722   0.00065   0.03873   0.01043   0.04894   2.29617
    D2       -1.93071   0.00007   0.01937   0.00522   0.02447  -1.90624
    D3        0.15156   0.00072   0.03805   0.01119   0.04921   0.20078
    D4        0.15156   0.00072   0.03805   0.01119   0.04921   0.20078
    D5        2.25681   0.00014   0.01868   0.00597   0.02474   2.28155
    D6       -1.94410   0.00079   0.03736   0.01194   0.04948  -1.89462
    D7       -1.93071   0.00007   0.01937   0.00522   0.02447  -1.90624
    D8        0.17454  -0.00050   0.00000   0.00000   0.00000   0.17454
    D9        2.25681   0.00014   0.01868   0.00597   0.02474   2.28155
         Item               Value     Threshold  Converged?
 Maximum Force            0.001520     0.000450     NO 
 RMS     Force            0.000797     0.000300     NO 
 Maximum Displacement     0.041592     0.001800     NO 
 RMS     Displacement     0.016850     0.001200     NO 
 Predicted change in Energy=-1.271291D-04
 GradGradGradGradGradGradGradGradGradGradGradGradGradGradGradGradGradGrad

                          Input orientation:                          
 ---------------------------------------------------------------------
 Center     Atomic      Atomic             Coordinates (Angstroms)
 Number     Number       Type             X           Y           Z
 ---------------------------------------------------------------------
      1          6           0       -1.141725   -0.466297   -0.010700
      2          1           0       -1.371209   -1.520738    0.205139
      3          1           0       -0.391958   -0.442671   -0.814733
      4          1           0       -2.065530   -0.001383   -0.385631
      5          6           0       -0.623383    0.266731    1.268105
      6          1           0        0.294382    0.834389    1.052313
      7          1           0       -1.369547    0.982891    1.642922
      8          1           0       -0.395940   -0.448022    2.072205
 ---------------------------------------------------------------------
                    Distance matrix (angstroms):
                    1          2          3          4          5
[...]
           R6           1.10026   1.10012   1.10004   1.10008   1.10022
           R7           1.10060   1.10027   1.09999   1.09986   1.09989
           A1         107.90160 107.81654 107.77948 107.80376 107.88184
           A2         108.60911 108.22027 107.74905 107.33914 107.11546
           A3         111.35234 111.31236 111.14534 110.89379 110.63818
           A4         107.10529 107.34004 107.76243 108.24081 108.62732
           A5         110.66788 110.90510 111.15045 111.33659 111.42014
           A6         111.04862 111.08487 111.09152 111.06510 111.00109
           A7         111.35234 111.31236 111.14534 110.89379 110.63818
           A8         111.04862 111.08487 111.09152 111.06510 111.00109
           A9         110.66788 110.90510 111.15045 111.33659 111.42014
           A10        108.60911 108.22027 107.74905 107.33914 107.11546
           A11        107.90160 107.81654 107.77948 107.80376 107.88184
           A12        107.10529 107.34004 107.76243 108.24081 108.62732
           D1        -142.33865-131.34436-119.93418-108.53394 -97.55885
           D2         -21.16916 -10.67205   0.03307  10.73320  21.22073
           D3          97.64739 108.61656 120.02064 131.43458 142.42716
           D4          97.64739 108.61656 120.02064 131.43458 142.42716
           D5        -141.18312-130.71113-120.01211-109.29828 -98.79326
           D6         -22.36658 -11.42252  -0.02454  11.40310  22.41316
           D7         -21.16916 -10.67205   0.03307  10.73320  21.22073
           D8         100.00033 110.00026 120.00031 130.00033 140.00032
           D9        -141.18312-130.71113-120.01211-109.29828 -98.79326
                          16        17        18        19        20
     Eigenvalues --    -0.88388  -0.88491  -0.88564  -0.88590  -0.88564
           R1           1.10083   1.10095   1.10090   1.10072   1.10054
           R2           1.10005   1.10030   1.10062   1.10090   1.10096
           R3           1.10041   1.10060   1.10073   1.10076   1.10071
           R4           1.55686   1.55405   1.55215   1.55146   1.55209
           R5           1.10083   1.10095   1.10090   1.10072   1.10054
           R6           1.10041   1.10060   1.10073   1.10076   1.10071
           R7           1.10005   1.10030   1.10062   1.10090   1.10096
           A1         107.98672 108.08646 108.15307 108.17850 108.16308
           A2         107.13500 107.37457 107.75680 108.18031 108.54688
           A3         110.46373 110.42702 110.53837 110.74781 110.99209
           A4         108.81902 108.78478 108.55179 108.18149 107.75327
           A5         111.38532 111.24057 111.02151 110.75907 110.52831
           A6         110.90679 110.80213 110.71160 110.69327 110.74971
           A7         110.46373 110.42702 110.53837 110.74781 110.99209
           A8         110.90679 110.80213 110.71160 110.69327 110.74971
           A9         111.38532 111.24057 111.02151 110.75907 110.52831
           A10        107.13500 107.37457 107.75680 108.18031 108.54688
           A11        107.98672 108.08646 108.15307 108.17850 108.16308
           A12        108.81902 108.78478 108.55179 108.18149 107.75327
           D1         -87.26347 -77.67988 -68.65915 -59.96660 -51.28671
           D2          31.36839  41.16017  50.67057  60.01682  69.35676
           D3         152.73006 162.30756 171.31431-179.99091-171.29992
           D4         152.73006 162.30756 171.31431-179.99091-171.29992
           D5         -88.63808 -78.85239 -69.35597 -60.00749 -50.65646
           D6          32.72359  42.29500  51.28777  59.98478  68.68686
           D7          31.36839  41.16017  50.67057  60.01682  69.35676
           D8         150.00026 160.00022 170.00029-179.99976-169.99978
           D9         -88.63808 -78.85239 -69.35597 -60.00749 -50.65646
                          21        22        23        24        25
     Eigenvalues --    -0.88491  -0.88388  -0.88282  -0.88202  -0.88172
           R1           1.10033   1.10013   1.09998   1.09994   1.10004
           R2           1.10096   1.10083   1.10059   1.10030   1.10003
           R3           1.10056   1.10036   1.10016   1.10003   1.10000
           R4           1.55400   1.55682   1.55989   1.56232   1.56327
           R5           1.10033   1.10013   1.09998   1.09994   1.10004
           R6           1.10056   1.10036   1.10016   1.10003   1.10000
           R7           1.10096   1.10083   1.10059   1.10030   1.10003
           A1         108.09301 107.99106 107.88359 107.80845 107.78924
           A2         108.77629 108.80641 108.61729 108.23386 107.75861
           A3         111.21745 111.36425 111.39019 111.30172 111.11304
           A4         107.37041 107.13128 107.10974 107.33227 107.74271
           A5         110.42873 110.47262 110.65348 110.90911 111.15811
           A6         110.82969 110.93086 111.02959 111.09364 111.11654
           A7         111.21745 111.36425 111.39019 111.30172 111.11304
           A8         110.82969 110.93086 111.02959 111.09364 111.11654
           A9         110.42873 110.47262 110.65348 110.90911 111.15811
           A10        108.77629 108.80641 108.61729 108.23386 107.75861
           A11        108.09301 107.99106 107.88359 107.80845 107.78924
           A12        107.37041 107.13128 107.10974 107.33227 107.74271
           D1         -42.27924 -32.69531 -22.38520 -11.37641   0.05133
           D2          78.86050  88.65248  98.80756 109.31191 120.02581
           D3        -162.28604-152.69934-142.39185-131.40087-119.98966
           D4        -162.28604-152.69934-142.39185-131.40087-119.98966
           D5         -41.14630 -31.35155 -21.19908 -10.71254  -0.01519
           D6          77.70716  87.29663  97.60151 108.57468 119.96934
           D7          78.86050  88.65248  98.80756 109.31191 120.02581
           D8        -159.99975-149.99974-139.99967-129.99977-119.99972
           D9         -41.14630 -31.35155 -21.19908 -10.71254  -0.01519
                          26        27        28        29        30
     Eigenvalues --    -0.88202  -0.88282  -0.88388  -0.88491  -0.88564
           R1           1.10029   1.10059   1.10085   1.10097   1.10095
           R2           1.09986   1.09984   1.09997   1.10020   1.10048
           R3           1.10009   1.10027   1.10048   1.10066   1.10078
           R4           1.56236   1.55995   1.55689   1.55406   1.55213
           R5           1.10029   1.10059   1.10085   1.10097   1.10095
           R6           1.10009   1.10027   1.10048   1.10066   1.10078
           R7           1.09986   1.09984   1.09997   1.10020   1.10048
           A1         107.83065 107.91402 108.01547 108.10887 108.17186
           A2         107.33550 107.10050 107.11412 107.35441 107.74336
           A3         110.87534 110.64609 110.49531 110.46105 110.55104
           A4         108.21822 108.61123 108.81377 108.78719 108.55436
           A5         111.32025 111.35722 111.27441 111.11108 110.91459
           A6         111.09937 111.05590 110.98537 110.89480 110.79897
           A7         110.87534 110.64609 110.49531 110.46105 110.55104
           A8         111.09937 111.05590 110.98537 110.89480 110.79897
           A9         111.32025 111.35722 111.27441 111.11108 110.91459
           A10        107.33550 107.10050 107.11412 107.35441 107.74336
           A11        107.83065 107.91402 108.01547 108.10887 108.17186
           A12        108.21822 108.61123 108.81377 108.78719 108.55436
           D1          11.45461  22.39798  32.64827  42.20905  51.24566
           D2         130.72746 141.19913 151.32426 161.10469 170.62297
           D3        -108.58757 -97.62030 -87.34259 -77.76952 -68.74287
           D4        -108.58757 -97.62030 -87.34259 -77.76952 -68.74287
           D5          10.68529  21.18085  31.33339  41.12613  50.63444
           D6         131.37026 142.36143 152.66654 162.25191 171.26860
           D7         130.72746 141.19913 151.32426 161.10469 170.62297
           D8        -109.99968 -99.99972 -89.99976 -79.99966 -69.99971
           D9          10.68529  21.18085  31.33339  41.12613  50.63444
                          31        32        33        34        35
     Eigenvalues --    -0.88590  -0.88564  -0.88491  -0.88388  -0.88282
           R1           1.10080   1.10055   1.10027   1.10001   1.09984
           R2           1.10074   1.10093   1.10099   1.10090   1.10066
           R3           1.10081   1.10074   1.10060   1.10042   1.10025
           R4           1.55144   1.55212   1.55404   1.55685   1.55991
           R5           1.10080   1.10055   1.10027   1.10001   1.09984
           R6           1.10081   1.10074   1.10060   1.10042   1.10025
           R7           1.10074   1.10093   1.10099   1.10090   1.10066
           A1         108.18845 108.15508 108.07761 107.97719 107.87736
           A2         108.18076 108.56420 108.80670 108.84037 108.64297
           A3         110.72690 110.94515 111.14482 111.29706 111.34864
           A4         108.17913 107.74969 107.36366 107.12114 107.09816
           A5         110.72887 110.59044 110.52717 110.56010 110.69180
           A6         110.73669 110.72963 110.79761 110.90272 111.02597
           A7         110.72690 110.94515 111.14482 111.29706 111.34864
           A8         110.73669 110.72963 110.79761 110.90272 111.02597
           A9         110.72887 110.59044 110.52717 110.56010 110.69180
           A10        108.18076 108.56420 108.80670 108.84037 108.64297
           A11        108.18845 108.15508 108.07761 107.97719 107.87736
           A12        108.17913 107.74969 107.36366 107.12114 107.09816
           D1          60.00278  68.75929  77.78593  87.34920  97.61146
           D2        -179.99847-170.62016-161.10686-151.32522-141.19406
           D3         -60.00048 -51.25413 -42.21922 -32.65153 -22.38550
           D4         -60.00048 -51.25413 -42.21922 -32.65153 -22.38550
           D5          59.99827  69.36643  78.88799  88.67405  98.80898
           D6        -180.00374-171.26754-162.22437-152.65226-142.38246
           D7        -179.99847-170.62016-161.10686-151.32522-141.19406
           D8         -59.99972 -49.99961 -39.99965 -29.99963 -19.99958
           D9          59.99827  69.36643  78.88799  88.67405  98.80898
                          36        37
     Eigenvalues --    -0.88202  -0.88172
           R1           1.09982   1.09997
           R2           1.10033   1.10003
           R3           1.10012   1.10007
           R4           1.56236   1.56332
           R5           1.09982   1.09997
           R6           1.10012   1.10007
           R7           1.10033   1.10003
           A1         107.80766 107.78380
           A2         108.24312 107.75318
           A3         111.29350 111.12103
           A4         107.32807 107.75431
           A5         110.90332 111.13208
           A6         111.10356 111.13392
           A7         111.29350 111.12103
           A8         111.10356 111.13392
           A9         110.90332 111.13208
           A10        108.24312 107.75318
           A11        107.80766 107.78380
           A12        107.32807 107.75431
           D1         108.59781 120.03113
           D2        -130.70092-119.98430
           D3         -11.41628   0.00909
           D4         -11.41628   0.00909
           D5         109.28500 119.99366
           D6        -131.43037-120.01294
           D7        -130.70092-119.98430
           D8          -9.99964   0.00027
           D9         109.28500 119.99366
 GradGradGradGradGradGradGradGradGradGradGradGradGradGradGradGradGradGrad

                          Input orientation:                          
 ---------------------------------------------------------------------
 Center     Atomic      Atomic             Coordinates (Angstroms)
 Number     Number       Type             X           Y           Z
 ---------------------------------------------------------------------
      1          6           0       -1.150359   -0.477160   -0.001267
      2          1           0       -1.290886    0.212137   -0.846880
      3          1           0       -2.118255   -0.957389    0.205164
      4          1           0       -0.448189   -1.261364   -0.320868
      5          6           0       -0.616016    0.278489    1.258672
      6          1           0       -1.312829    0.181396    2.104228
      7          1           0        0.357292   -0.122279    1.578387
      8          1           0       -0.485669    1.351070    1.052184
 ---------------------------------------------------------------------
                    Distance matrix (angstroms):
                    1          2          3          4          5
     1  C    0.000000
     2  H    1.099973   0.000000
     3  H    1.100026   1.777393   0.000000
     4  H    1.100074   1.777086   1.777141   0.000000
     5  C    1.563322   2.212058   2.212238   2.212297   0.000000
     6  H    2.212058   2.951349   2.356265   2.951313   1.099973
     7  H    2.212297   2.951313   2.951522   2.356583   1.100074
     8  H    2.212238   2.356265   2.951569   2.951522   1.100026
                    6          7          8
     6  H    0.000000
     7  H    1.777086   0.000000
     8  H    1.777393   1.777141   0.000000
 Stoichiometry    C2H6
 Framework group  C1[X(C2H6)]
 Deg. of freedom    18
 Full point group                 C1      NOp   1
 Largest Abelian subgroup         C1      NOp   1
 Largest concise Abelian subgroup C1      NOp   1
                         Standard orientation:                         
 ---------------------------------------------------------------------
 Center     Atomic      Atomic             Coordinates (Angstroms)
 Number     Number       Type             X           Y           Z
 ---------------------------------------------------------------------
      1          6           0       -0.781661   -0.000009   -0.000040
      2          1           0       -1.178014   -0.888762   -0.512838
      3          1           0       -1.178251    0.888631   -0.512964
      4          1           0       -1.178291   -0.000012    1.026043
      5          6           0        0.781661    0.000009   -0.000040
      6          1           0        1.178014    0.888763   -0.512837
      7          1           0        1.178291    0.000010    1.026043
      8          1           0        1.178251   -0.888630   -0.512966
 ---------------------------------------------------------------------
 Rotational constants (GHZ):          79.3827629          19.2596849          19.2587035

 **********************************************************************

            Population analysis using the SCF Density.

 **********************************************************************

 Orbital symmetries:
       Occupied  (A) (A) (A) (A) (A) (A) (A) (A) (A)
       Virtual   (A) (A) (A) (A) (A) (A) (A)
 The electronic state is 1-A.
 Alpha  occ. eigenvalues --  -10.00263 -10.00157  -0.70929  -0.58462  -0.39915
 Alpha  occ. eigenvalues --   -0.39906  -0.32230  -0.30863  -0.30854
 Alpha virt. eigenvalues --    0.38703   0.38718   0.40977   0.46692   0.51037
 Alpha virt. eigenvalues --    0.52859   0.52876
          Condensed to atoms (all electrons):
               1          2          3          4          5          6
     1  C    4.777692   0.380676   0.380672   0.380643   0.355821  -0.019089
     2  H    0.380676   0.611842  -0.021242  -0.021259  -0.019089   0.001306
     3  H    0.380672  -0.021242   0.611847  -0.021259  -0.019080  -0.006304
     4  H    0.380643  -0.021259  -0.021259   0.611901  -0.019074   0.001306
     5  C    0.355821  -0.019089  -0.019080  -0.019074   4.777692   0.380676
     6  H   -0.019089   0.001306  -0.006304   0.001306   0.380676   0.611842
     7  H   -0.019074   0.001306   0.001305  -0.006302   0.380643  -0.021259
     8  H   -0.019080  -0.006304   0.001305   0.001305   0.380672  -0.021242
               7          8
     1  C   -0.019074  -0.019080
     2  H    0.001306  -0.006304
     3  H    0.001305   0.001305
     4  H   -0.006302   0.001305
     5  C    0.380643   0.380672
     6  H   -0.021259  -0.021242
     7  H    0.611901  -0.021259
     8  H   -0.021259   0.611847
 Mulliken charges:
               1
     1  C   -0.218261
     2  H    0.072764
     3  H    0.072757
     4  H    0.072740
     5  C   -0.218261
     6  H    0.072764
     7  H    0.072740
     8  H    0.072757
 Sum of Mulliken charges =   0.00000
 Mulliken charges with hydrogens summed into heavy atoms:
               1
     1  C   -0.000000
     5  C    0.000000
 Electronic spatial extent (au):  <R**2>=            109.4832
 Charge=              0.0000 electrons
 Dipole moment (field-independent basis, Debye):
    X=             -0.0000    Y=             -0.0000    Z=              0.0001  Tot=              0.0001
 Quadrupole moment (field-independent basis, Debye-Ang):
   XX=            -14.0831   YY=            -13.8056   ZZ=            -13.8071
   XY=             -0.0002   XZ=             -0.0000   YZ=              0.0000
 Traceless Quadrupole moment (field-independent basis, Debye-Ang):
   XX=             -0.1845   YY=              0.0930   ZZ=              0.0915
   XY=             -0.0002   XZ=             -0.0000   YZ=              0.0000
 Octapole moment (field-independent basis, Debye-Ang**2):
  XXX=             -0.0000  YYY=              0.0000  ZZZ=              1.0132  XYY=             -0.0000
  XXY=             -0.0000  XXZ=              0.0010  XZZ=              0.0000  YZZ=             -0.0000
  YYZ=             -1.0130  XYZ=              0.0003
 Hexadecapole moment (field-independent basis, Debye-Ang**3):
 XXXX=            -86.9934 YYYY=            -24.7421 ZZZZ=            -24.7393 XXXY=             -0.0012
 XXXZ=             -0.0000 YYYX=              0.0001 YYYZ=              0.0000 ZZZX=             -0.0000
 ZZZY=             -0.0000 XXYY=            -17.2816 XXZZ=            -17.2822 YYZZ=             -8.2473
 XXYZ=             -0.0000 YYXZ=              0.0000 ZZXY=             -0.0003
 N-N= 4.165153847571D+01 E-N=-2.649153021821D+02  KE= 7.752887968434D+01
 1\1\GINC-DESKTOP-JPBO6QE\Scan\RB3LYP\STO-3G\C2H6\LEOS\14-Oct-2019\0\\#
  opt=modredundant b3lyp/sto-3g geom=connectivity\\Title Card Required\
 \0,1\C,-1.1503586061,-0.4771603621,-0.0012669156\H,-1.2908864532,0.212
 1369742,-0.8468798939\H,-2.1182547221,-0.9573893457,0.2051642096\H,-0.
 4481886861,-1.2613637714,-0.3208675164\C,-0.6160160408,0.2784893841,1.
 2586718451\H,-1.3128291647,0.1813962721,2.1042276392\H,0.3572923529,-0
 .1222788821,1.5783868683\H,-0.4856690882,1.3510698337,1.0521835211\\Ve
 rsion=ES64L-G16RevB.01\State=1-A\HF=-78.8817211,-78.8820199,-78.882820
 4,-78.8838811,-78.8849076,-78.8856397,-78.8859038,-78.8856398,-78.8849
 078,-78.8838809,-78.8828198,-78.8820195,-78.8817212,-78.8820198,-78.88
 2821,-78.8838833,-78.88491,-78.8856405,-78.8859037,-78.8856407,-78.884
 91,-78.8838832,-78.8828209,-78.8820197,-78.8817212,-78.8820196,-78.882
 8199,-78.883881,-78.8849078,-78.8856398,-78.8859038,-78.8856397,-78.88
 49076,-78.8838811,-78.8828204,-78.8820199,-78.8817213\RMSD=6.173e-09,1
 .091e-09,1.477e-09,4.764e-09,5.490e-09,5.715e-09,6.066e-09,6.927e-09,3
 .174e-09,2.833e-09,1.677e-09,8.360e-09,1.767e-09,8.443e-09,7.963e-09,9
 .654e-09,2.741e-09,3.695e-09,3.732e-09,3.623e-09,2.285e-09,2.271e-09,3
 .583e-09,4.008e-09,2.925e-09,3.788e-09,2.598e-09,6.240e-09,6.289e-09,5
 .928e-09,7.765e-09,5.368e-09,5.230e-09,1.414e-09,1.571e-09,2.012e-09,7
 .142e-09\PG=C01 [X(C2H6)]\\@


 I am not a vegetarian because I love animals;
 I am a vegetarian because I hate plants.
                               -- A. Whitney Brown
 Job cpu time:       0 days  0 hours  3 minutes 37.4 seconds.
 Elapsed time:       0 days  0 hours  3 minutes 30.3 seconds.
 File lengths (MBytes):  RWF=      6 Int=      0 D2E=      0 Chk=      3 Scr=      1
 Normal termination of Gaussian 16 at Mon Oct 14 21:00:49 2019.
