 Entering Gaussian System, Link 0=g16
 Input=eteno.com
 Output=eteno.log
 Initial command:
 /opt/g16/l1.exe "/home/montoya/Montoya/Orbitales/eteno/Gau-13782.inp" -scrdir="/home/montoya/Montoya/Orbitales/eteno/"
 Entering Link 1 = /opt/g16/l1.exe PID=     13784.
  
 Copyright (c) 1988-2017, Gaussian, Inc.  All Rights Reserved.
  
 This is part of the Gaussian(R) 16 program.  It is based on
 the Gaussian(R) 09 system (copyright 2009, Gaussian, Inc.),
 the Gaussian(R) 03 system (copyright 2003, Gaussian, Inc.),
 the Gaussian(R) 98 system (copyright 1998, Gaussian, Inc.),
 the Gaussian(R) 94 system (copyright 1995, Gaussian, Inc.),
 the Gaussian 92(TM) system (copyright 1992, Gaussian, Inc.),
 the Gaussian 90(TM) system (copyright 1990, Gaussian, Inc.),
 the Gaussian 88(TM) system (copyright 1988, Gaussian, Inc.),
 the Gaussian 86(TM) system (copyright 1986, Carnegie Mellon
 University), and the Gaussian 82(TM) system (copyright 1983,
 Carnegie Mellon University). Gaussian is a federally registered
 trademark of Gaussian, Inc.
  
 This software contains proprietary and confidential information,
 including trade secrets, belonging to Gaussian, Inc.
  
 This software is provided under written license and may be
 used, copied, transmitted, or stored only in accord with that
 written license.
  
 The following legend is applicable only to US Government
 contracts under FAR:
  
                    RESTRICTED RIGHTS LEGEND
  
 Use, reproduction and disclosure by the US Government is
 subject to restrictions as set forth in subparagraphs (a)
 and (c) of the Commercial Computer Software - Restricted
 Rights clause in FAR 52.227-19.
  
 Gaussian, Inc.
 340 Quinnipiac St., Bldg. 40, Wallingford CT 06492
  
  
 ---------------------------------------------------------------
 Warning -- This program may not be used in any manner that
 competes with the business of Gaussian, Inc. or will provide
 assistance to any competitor of Gaussian, Inc.  The licensee
 of this program is prohibited from giving any competitor of
 Gaussian, Inc. access to this program.  By using this program,
 the user acknowledges that Gaussian, Inc. is engaged in the
 business of creating and licensing software in the field of
 computational chemistry and represents and warrants to the
 licensee that it is not a competitor of Gaussian, Inc. and that
 it will not use this program in any manner prohibited above.
 ---------------------------------------------------------------
  

 Cite this work as:
 Gaussian 16, Revision B.01,
 M. J. Frisch, G. W. Trucks, H. B. Schlegel, G. E. Scuseria, 
 M. A. Robb, J. R. Cheeseman, G. Scalmani, V. Barone, 
 G. A. Petersson, H. Nakatsuji, X. Li, M. Caricato, A. V. Marenich, 
 J. Bloino, B. G. Janesko, R. Gomperts, B. Mennucci, H. P. Hratchian, 
 J. V. Ortiz, A. F. Izmaylov, J. L. Sonnenberg, D. Williams-Young, 
 F. Ding, F. Lipparini, F. Egidi, J. Goings, B. Peng, A. Petrone, 
 T. Henderson, D. Ranasinghe, V. G. Zakrzewski, J. Gao, N. Rega, 
 G. Zheng, W. Liang, M. Hada, M. Ehara, K. Toyota, R. Fukuda, 
 J. Hasegawa, M. Ishida, T. Nakajima, Y. Honda, O. Kitao, H. Nakai, 
 T. Vreven, K. Throssell, J. A. Montgomery, Jr., J. E. Peralta, 
 F. Ogliaro, M. J. Bearpark, J. J. Heyd, E. N. Brothers, K. N. Kudin, 
 V. N. Staroverov, T. A. Keith, R. Kobayashi, J. Normand, 
 K. Raghavachari, A. P. Rendell, J. C. Burant, S. S. Iyengar, 
 J. Tomasi, M. Cossi, J. M. Millam, M. Klene, C. Adamo, R. Cammi, 
 J. W. Ochterski, R. L. Martin, K. Morokuma, O. Farkas, 
 J. B. Foresman, and D. J. Fox, Gaussian, Inc., Wallingford CT, 2016.
 
 ******************************************
 Gaussian 16:  EM64L-G16RevB.01 20-Dec-2017
                18-Feb-2019 
 ******************************************
 %Chk=eteno.chk
 --------------------------------
 #n B3LYP/6-31+G(d,p) Opt Pop=NPA
 --------------------------------
 1/18=20,19=15,26=3,38=1/1,3;
 2/9=110,12=2,17=6,18=5,40=1/2;
 3/5=1,6=6,7=111,11=2,25=1,30=1,71=1,74=-5/1,2,3;
 4//1;
 5/5=2,38=5/2;
 6/7=2,8=2,9=2,10=2,28=1,40=-1/1,7;
 7//1,2,3,16;
 1/18=20,19=15,26=3/3(2);
 2/9=110/2;
 99//99;
 2/9=110/2;
 3/5=1,6=6,7=111,11=2,25=1,30=1,71=1,74=-5/1,2,3;
 4/5=5,16=3,69=1/1;
 5/5=2,38=5/2;
 7//1,2,3,16;
 1/18=20,19=15,26=3/3(-5);
 2/9=110/2;
 6/7=2,8=2,9=2,10=2,19=2,28=1,40=-1/1,7;
 99/9=1/99;
 -----
 eteno
 -----
 Symbolic Z-matrix:
 Charge =  0 Multiplicity = 1
 C                     1.09572   0.40874   0.27499 
 C                     2.03448  -0.36184  -0.27403 
 H                     1.3736    1.30567   0.81824 
 H                     0.04785   0.14384   0.18205 
 H                     3.08235  -0.09694  -0.18109 
 H                     1.7566   -1.25877  -0.81728 
 

 GradGradGradGradGradGradGradGradGradGradGradGradGradGradGradGradGradGrad
 Berny optimization.
 Initialization pass.
                           ----------------------------
                           !    Initial Parameters    !
                           ! (Angstroms and Degrees)  !
 --------------------------                            --------------------------
 ! Name  Definition              Value          Derivative Info.                !
 --------------------------------------------------------------------------------
 ! R1    R(1,2)                  1.3328         estimate D2E/DX2                !
 ! R2    R(1,3)                  1.0848         estimate D2E/DX2                !
 ! R3    R(1,4)                  1.0848         estimate D2E/DX2                !
 ! R4    R(2,5)                  1.0848         estimate D2E/DX2                !
 ! R5    R(2,6)                  1.0848         estimate D2E/DX2                !
 ! A1    A(2,1,3)              120.2567         estimate D2E/DX2                !
 ! A2    A(2,1,4)              120.2562         estimate D2E/DX2                !
 ! A3    A(3,1,4)              119.4871         estimate D2E/DX2                !
 ! A4    A(1,2,5)              120.2562         estimate D2E/DX2                !
 ! A5    A(1,2,6)              120.2567         estimate D2E/DX2                !
 ! A6    A(5,2,6)              119.4871         estimate D2E/DX2                !
 ! D1    D(3,1,2,5)             -0.0001         estimate D2E/DX2                !
 ! D2    D(3,1,2,6)            180.0            estimate D2E/DX2                !
 ! D3    D(4,1,2,5)            180.0            estimate D2E/DX2                !
 ! D4    D(4,1,2,6)              0.0001         estimate D2E/DX2                !
 --------------------------------------------------------------------------------
 Trust Radius=3.00D-01 FncErr=1.00D-07 GrdErr=1.00D-06 EigMax=2.50D+02 EigMin=1.00D-04
 Number of steps in this run=     25 maximum allowed number of steps=    100.
 GradGradGradGradGradGradGradGradGradGradGradGradGradGradGradGradGradGrad

                          Input orientation:                          
 ---------------------------------------------------------------------
 Center     Atomic      Atomic             Coordinates (Angstroms)
 Number     Number       Type             X           Y           Z
 ---------------------------------------------------------------------
      1          6           0        1.095720    0.408740    0.274990
      2          6           0        2.034480   -0.361840   -0.274030
      3          1           0        1.373600    1.305670    0.818240
      4          1           0        0.047850    0.143840    0.182050
      5          1           0        3.082350   -0.096940   -0.181090
      6          1           0        1.756600   -1.258770   -0.817280
 ---------------------------------------------------------------------
                    Distance matrix (angstroms):
                    1          2          3          4          5
     1  C    0.000000
     2  C    1.332849   0.000000
     3  H    1.084814   2.100097   0.000000
     4  H    1.084823   2.100100   1.874086   0.000000
     5  H    2.100100   1.084823   2.426067   3.065622   0.000000
     6  H    2.100097   1.084814   3.065610   2.426067   1.874086
                    6
     6  H    0.000000
 Stoichiometry    C2H4
 Framework group  C2H[SGH(C2H4)]
 Deg. of freedom     5
 Full point group                 C2H     NOp   4
 Largest Abelian subgroup         C2H     NOp   4
 Largest concise Abelian subgroup C2      NOp   2
                         Standard orientation:                         
 ---------------------------------------------------------------------
 Center     Atomic      Atomic             Coordinates (Angstroms)
 Number     Number       Type             X           Y           Z
 ---------------------------------------------------------------------
      1          6           0        0.000000    0.666425   -0.000000
      2          6           0       -0.000000   -0.666425   -0.000000
      3          1           0       -0.937037    1.213035   -0.000000
      4          1           0        0.937049    1.213032   -0.000000
      5          1           0       -0.937049   -1.213032   -0.000000
      6          1           0        0.937037   -1.213035   -0.000000
 ---------------------------------------------------------------------
 Rotational constants (GHZ):         142.7752245          30.4614386          25.1051865
 Standard basis: 6-31+G(d,p) (6D, 7F)
 There are    22 symmetry adapted cartesian basis functions of AG  symmetry.
 There are     7 symmetry adapted cartesian basis functions of BG  symmetry.
 There are     7 symmetry adapted cartesian basis functions of AU  symmetry.
 There are    22 symmetry adapted cartesian basis functions of BU  symmetry.
 There are    22 symmetry adapted basis functions of AG  symmetry.
 There are     7 symmetry adapted basis functions of BG  symmetry.
 There are     7 symmetry adapted basis functions of AU  symmetry.
 There are    22 symmetry adapted basis functions of BU  symmetry.
    58 basis functions,    92 primitive gaussians,    58 cartesian basis functions
     8 alpha electrons        8 beta electrons
       nuclear repulsion energy        33.3938991187 Hartrees.
 NAtoms=    6 NActive=    6 NUniq=    3 SFac= 4.00D+00 NAtFMM=   60 NAOKFM=F Big=F
 Integral buffers will be    131072 words long.
 Raffenetti 2 integral format.
 Two-electron integral symmetry is turned on.
 One-electron integrals computed using PRISM.
 NBasis=    58 RedAO= T EigKep=  2.15D-04  NBF=    22     7     7    22
 NBsUse=    58 1.00D-06 EigRej= -1.00D+00 NBFU=    22     7     7    22
 ExpMin= 4.38D-02 ExpMax= 3.05D+03 ExpMxC= 4.57D+02 IAcc=3 IRadAn=         5 AccDes= 0.00D+00
 Harris functional with IExCor=  402 and IRadAn=       5 diagonalized for initial guess.
 HarFok:  IExCor=  402 AccDes= 0.00D+00 IRadAn=         5 IDoV= 1 UseB2=F ITyADJ=14
 ICtDFT=  3500011 ScaDFX=  1.000000  1.000000  1.000000  1.000000
 FoFCou: FMM=F IPFlag=           0 FMFlag=      100000 FMFlg1=           0
         NFxFlg=           0 DoJE=T BraDBF=F KetDBF=T FulRan=T
         wScrn=  0.000000 ICntrl=       500 IOpCl=  0 I1Cent=   200000004 NGrid=           0
         NMat0=    1 NMatS0=      1 NMatT0=    0 NMatD0=    1 NMtDS0=    0 NMtDT0=    0
 Petite list used in FoFCou.
 Initial guess orbital symmetries:
       Occupied  (AG) (BU) (AG) (BU) (BU) (AG) (AG) (AU)
       Virtual   (BG) (AG) (BU) (BU) (AU) (AG) (AG) (BG) (AG) (BU)
                 (BU) (BU) (BU) (AG) (AG) (BU) (AU) (BG) (BU) (AG)
                 (BU) (AG) (AG) (BU) (BU) (AG) (AU) (BG) (AU) (AG)
                 (BU) (AG) (AG) (BU) (BG) (BU) (AU) (BG) (BU) (BG)
                 (AU) (AG) (AG) (BU) (AG) (BU) (BU) (AG) (AG) (BU)
 The electronic state of the initial guess is 1-AG.
 Keep R1 ints in memory in symmetry-blocked form, NReq=2351137.
 Requested convergence on RMS density matrix=1.00D-08 within 128 cycles.
 Requested convergence on MAX density matrix=1.00D-06.
 Requested convergence on             energy=1.00D-06.
 No special actions if energy rises.
 SCF Done:  E(RB3LYP) =  -78.5991834052     A.U. after    8 cycles
            NFock=  8  Conv=0.14D-08     -V/T= 2.0106

 **********************************************************************

            Population analysis using the SCF Density.

 **********************************************************************

 Orbital symmetries:
       Occupied  (AG) (BU) (AG) (BU) (BU) (AG) (AG) (AU)
       Virtual   (BG) (AG) (BU) (BU) (AU) (AG) (AG) (BG) (BU) (AG)
                 (BU) (BU) (AG) (BU) (AG) (BU) (AU) (BG) (BU) (AG)
                 (BU) (AG) (AG) (BU) (BU) (AG) (BG) (AU) (AU) (AG)
                 (BU) (AG) (AG) (BU) (BG) (BU) (AU) (BG) (BU) (BG)
                 (AU) (AG) (AG) (BU) (AG) (BU) (BU) (AG) (AG) (BU)
 The electronic state is 1-AG.
 Alpha  occ. eigenvalues --  -10.19418 -10.19329  -0.76657  -0.58236  -0.47833
 Alpha  occ. eigenvalues --   -0.41920  -0.36378  -0.27828
 Alpha virt. eigenvalues --   -0.00863   0.02518   0.03367   0.04573   0.06918
 Alpha virt. eigenvalues --    0.08586   0.08703   0.12870   0.15699   0.17498
 Alpha virt. eigenvalues --    0.19934   0.24681   0.34734   0.35203   0.56701
 Alpha virt. eigenvalues --    0.65066   0.67376   0.72151   0.76562   0.81856
 Alpha virt. eigenvalues --    0.89590   0.92111   0.94564   0.99213   1.16301
 Alpha virt. eigenvalues --    1.22504   1.37086   1.38569   1.51459   1.84743
 Alpha virt. eigenvalues --    1.89667   1.98854   1.99744   2.06858   2.14861
 Alpha virt. eigenvalues --    2.24468   2.35013   2.45462   2.52707   2.58601
 Alpha virt. eigenvalues --    2.68765   2.73498   2.73698   2.98118   3.20206
 Alpha virt. eigenvalues --    3.33598   3.51014   3.73662   4.22620   4.52066
          Condensed to atoms (all electrons):
               1          2          3          4          5          6
     1  C    4.848488   0.701392   0.389368   0.389366  -0.028845  -0.028845
     2  C    0.701392   4.848488  -0.028845  -0.028845   0.389366   0.389368
     3  H    0.389368  -0.028845   0.542573  -0.034196  -0.008986   0.004625
     4  H    0.389366  -0.028845  -0.034196   0.542575   0.004625  -0.008986
     5  H   -0.028845   0.389366  -0.008986   0.004625   0.542575  -0.034196
     6  H   -0.028845   0.389368   0.004625  -0.008986  -0.034196   0.542573
 Mulliken charges:
               1
     1  C   -0.270923
     2  C   -0.270923
     3  H    0.135462
     4  H    0.135461
     5  H    0.135461
     6  H    0.135462
 Sum of Mulliken charges =  -0.00000
 Mulliken charges with hydrogens summed into heavy atoms:
               1
     1  C   -0.000000
     2  C   -0.000000
 Electronic spatial extent (au):  <R**2>=             83.0022
 Charge=             -0.0000 electrons
 Dipole moment (field-independent basis, Debye):
    X=             -0.0000    Y=             -0.0000    Z=              0.0000  Tot=              0.0000
 Quadrupole moment (field-independent basis, Debye-Ang):
   XX=            -12.2795   YY=            -12.6363   ZZ=            -15.9860
   XY=             -0.0000   XZ=              0.0000   YZ=              0.0000
 Traceless Quadrupole moment (field-independent basis, Debye-Ang):
   XX=              1.3545   YY=              0.9976   ZZ=             -2.3521
   XY=             -0.0000   XZ=              0.0000   YZ=              0.0000
 Octapole moment (field-independent basis, Debye-Ang**2):
  XXX=              0.0000  YYY=             -0.0000  ZZZ=              0.0000  XYY=             -0.0000
  XXY=             -0.0000  XXZ=              0.0000  XZZ=              0.0000  YZZ=             -0.0000
  YYZ=              0.0000  XYZ=             -0.0000
 Hexadecapole moment (field-independent basis, Debye-Ang**3):
 XXXX=            -28.4031 YYYY=            -70.7916 ZZZZ=            -22.2900 XXXY=             -0.0001
 XXXZ=              0.0000 YYYX=             -0.0002 YYYZ=             -0.0000 ZZZX=              0.0000
 ZZZY=             -0.0000 XXYY=            -14.0698 XXZZ=             -9.1319 YYZZ=            -16.4079
 XXYZ=             -0.0000 YYXZ=              0.0000 ZZXY=             -0.0001
 N-N= 3.339389911874D+01 E-N=-2.480516286009D+02  KE= 7.777106491571D+01
 Symmetry AG   KE= 3.950602031619D+01
 Symmetry BG   KE=-4.302067679828D-19
 Symmetry AU   KE= 2.027637534505D+00
 Symmetry BU   KE= 3.623740706501D+01
 ******************************Gaussian NBO Version 3.1******************************
             N A T U R A L   A T O M I C   O R B I T A L   A N D
          N A T U R A L   B O N D   O R B I T A L   A N A L Y S I S
 ******************************Gaussian NBO Version 3.1******************************
       /RESON  / : Allow strongly delocalized NBO set

 Analyzing the SCF density

 Job title: eteno                                                           

 Storage needed:     10444 in NPA ( 104857372 available)
 GSVD:  LWork=        1060 too small for GESVD, short by        3260 words or        3260 for optimal perf.


 NATURAL POPULATIONS:  Natural atomic orbital occupancies 
                                                          
   NAO  Atom  No  lang   Type(AO)    Occupancy      Energy
 ----------------------------------------------------------
     1    C    1  S      Cor( 1S)     1.99925     -10.05719
     2    C    1  S      Val( 2S)     1.07891      -0.24300
     3    C    1  S      Ryd( 4S)     0.00144       0.85501
     4    C    1  S      Ryd( 3S)     0.00021       0.62393
     5    C    1  S      Ryd( 5S)     0.00000       3.95483
     6    C    1  px     Val( 2p)     1.22312      -0.04697
     7    C    1  px     Ryd( 4p)     0.00329       0.84876
     8    C    1  px     Ryd( 3p)     0.00039       0.35555
     9    C    1  py     Val( 2p)     1.13389      -0.05398
    10    C    1  py     Ryd( 4p)     0.00381       0.42162
    11    C    1  py     Ryd( 3p)     0.00011       0.33491
    12    C    1  pz     Val( 2p)     0.99606      -0.11662
    13    C    1  pz     Ryd( 4p)     0.00275       0.44048
    14    C    1  pz     Ryd( 3p)     0.00030       0.34091
    15    C    1  dxy    Ryd( 3d)     0.00078       2.63589
    16    C    1  dxz    Ryd( 3d)     0.00000       1.86477
    17    C    1  dyz    Ryd( 3d)     0.00064       1.96207
    18    C    1  dx2y2  Ryd( 3d)     0.00058       2.51170
    19    C    1  dz2    Ryd( 3d)     0.00043       2.27581

    20    C    2  S      Cor( 1S)     1.99925     -10.05719
    21    C    2  S      Val( 2S)     1.07891      -0.24300
    22    C    2  S      Ryd( 4S)     0.00144       0.85501
    23    C    2  S      Ryd( 3S)     0.00021       0.62393
    24    C    2  S      Ryd( 5S)     0.00000       3.95483
    25    C    2  px     Val( 2p)     1.22312      -0.04697
    26    C    2  px     Ryd( 4p)     0.00329       0.84876
    27    C    2  px     Ryd( 3p)     0.00039       0.35555
    28    C    2  py     Val( 2p)     1.13389      -0.05398
    29    C    2  py     Ryd( 4p)     0.00381       0.42162
    30    C    2  py     Ryd( 3p)     0.00011       0.33491
    31    C    2  pz     Val( 2p)     0.99606      -0.11662
    32    C    2  pz     Ryd( 4p)     0.00275       0.44048
    33    C    2  pz     Ryd( 3p)     0.00030       0.34091
    34    C    2  dxy    Ryd( 3d)     0.00078       2.63589
    35    C    2  dxz    Ryd( 3d)     0.00000       1.86477
    36    C    2  dyz    Ryd( 3d)     0.00064       1.96207
    37    C    2  dx2y2  Ryd( 3d)     0.00058       2.51170
    38    C    2  dz2    Ryd( 3d)     0.00043       2.27581

    39    H    3  S      Val( 1S)     0.77542       0.08761
    40    H    3  S      Ryd( 2S)     0.00098       0.61059
    41    H    3  px     Ryd( 2p)     0.00035       2.85910
    42    H    3  py     Ryd( 2p)     0.00015       2.54856
    43    H    3  pz     Ryd( 2p)     0.00012       2.20529

    44    H    4  S      Val( 1S)     0.77542       0.08760
    45    H    4  S      Ryd( 2S)     0.00098       0.61060
    46    H    4  px     Ryd( 2p)     0.00035       2.85908
    47    H    4  py     Ryd( 2p)     0.00015       2.54854
    48    H    4  pz     Ryd( 2p)     0.00012       2.20529

    49    H    5  S      Val( 1S)     0.77542       0.08760
    50    H    5  S      Ryd( 2S)     0.00098       0.61060
    51    H    5  px     Ryd( 2p)     0.00035       2.85908
    52    H    5  py     Ryd( 2p)     0.00015       2.54854
    53    H    5  pz     Ryd( 2p)     0.00012       2.20529

    54    H    6  S      Val( 1S)     0.77542       0.08761
    55    H    6  S      Ryd( 2S)     0.00098       0.61059
    56    H    6  px     Ryd( 2p)     0.00035       2.85910
    57    H    6  py     Ryd( 2p)     0.00015       2.54856
    58    H    6  pz     Ryd( 2p)     0.00012       2.20529

 WARNING:  Population inversion found on atom  C    1
           Population inversion found on atom  C    2


 Summary of Natural Population Analysis:                  
                                                          
                                       Natural Population 
                Natural  -----------------------------------------------
    Atom  No    Charge         Core      Valence    Rydberg      Total
 -----------------------------------------------------------------------
      C    1   -0.44596      1.99925     4.43198    0.01473     6.44596
      C    2   -0.44596      1.99925     4.43198    0.01473     6.44596
      H    3    0.22298      0.00000     0.77542    0.00160     0.77702
      H    4    0.22298      0.00000     0.77542    0.00160     0.77702
      H    5    0.22298      0.00000     0.77542    0.00160     0.77702
      H    6    0.22298      0.00000     0.77542    0.00160     0.77702
 =======================================================================
   * Total *    0.00000      3.99849    11.96566    0.03585    16.00000

                                 Natural Population      
 --------------------------------------------------------
   Core                       3.99849 ( 99.9623% of   4)
   Valence                   11.96566 ( 99.7138% of  12)
   Natural Minimal Basis     15.96415 ( 99.7759% of  16)
   Natural Rydberg Basis      0.03585 (  0.2241% of  16)
 --------------------------------------------------------

    Atom  No          Natural Electron Configuration
 ----------------------------------------------------------------------------
      C    1      [core]2S( 1.08)2p( 3.35)4p( 0.01)
      C    2      [core]2S( 1.08)2p( 3.35)4p( 0.01)
      H    3            1S( 0.78)
      H    4            1S( 0.78)
      H    5            1S( 0.78)
      H    6            1S( 0.78)


 NBO analysis skipped by request.
 Calling FoFJK, ICntrl=      2127 FMM=F ISym2X=1 I1Cent= 0 IOpClX= 0 NMat=1 NMatS=1 NMatT=0.
 ***** Axes restored to original set *****
 -------------------------------------------------------------------
 Center     Atomic                   Forces (Hartrees/Bohr)
 Number     Number              X              Y              Z
 -------------------------------------------------------------------
      1        6           0.002298147   -0.001893593   -0.001348532
      2        6          -0.002298147    0.001893593    0.001348532
      3        1          -0.003819793    0.001664924    0.001311434
      4        1          -0.002081048    0.003185291    0.002143679
      5        1           0.002081048   -0.003185291   -0.002143679
      6        1           0.003819793   -0.001664924   -0.001311434
 -------------------------------------------------------------------
 Cartesian Forces:  Max     0.003819793 RMS     0.002329534

 GradGradGradGradGradGradGradGradGradGradGradGradGradGradGradGradGradGrad
 Berny optimization.
 FormGI is forming the generalized inverse of G from B-inverse, IUseBI=4.
 Internal  Forces:  Max     0.005793662 RMS     0.002958414
 Search for a local minimum.
 Step number   1 out of a maximum of   25
 All quantities printed in internal units (Hartrees-Bohrs-Radians)
 Mixed Optimization -- RFO/linear search
 Second derivative matrix not updated -- first step.
 The second derivative matrix:
                          R1        R2        R3        R4        R5
           R1           0.58838
           R2           0.00000   0.35419
           R3           0.00000   0.00000   0.35418
           R4           0.00000   0.00000   0.00000   0.35418
           R5           0.00000   0.00000   0.00000   0.00000   0.35419
           A1           0.00000   0.00000   0.00000   0.00000   0.00000
           A2           0.00000   0.00000   0.00000   0.00000   0.00000
           A3           0.00000   0.00000   0.00000   0.00000   0.00000
           A4           0.00000   0.00000   0.00000   0.00000   0.00000
           A5           0.00000   0.00000   0.00000   0.00000   0.00000
           A6           0.00000   0.00000   0.00000   0.00000   0.00000
           D1           0.00000   0.00000   0.00000   0.00000   0.00000
           D2           0.00000   0.00000   0.00000   0.00000   0.00000
           D3           0.00000   0.00000   0.00000   0.00000   0.00000
           D4           0.00000   0.00000   0.00000   0.00000   0.00000
                          A1        A2        A3        A4        A5
           A1           0.16000
           A2           0.00000   0.16000
           A3           0.00000   0.00000   0.16000
           A4           0.00000   0.00000   0.00000   0.16000
           A5           0.00000   0.00000   0.00000   0.00000   0.16000
           A6           0.00000   0.00000   0.00000   0.00000   0.00000
           D1           0.00000   0.00000   0.00000   0.00000   0.00000
           D2           0.00000   0.00000   0.00000   0.00000   0.00000
           D3           0.00000   0.00000   0.00000   0.00000   0.00000
           D4           0.00000   0.00000   0.00000   0.00000   0.00000
                          A6        D1        D2        D3        D4
           A6           0.16000
           D1           0.00000   0.02977
           D2           0.00000   0.00000   0.02977
           D3           0.00000   0.00000   0.00000   0.02977
           D4           0.00000   0.00000   0.00000   0.00000   0.02977
 ITU=  0
     Eigenvalues ---    0.02977   0.02977   0.02977   0.16000   0.16000
     Eigenvalues ---    0.16000   0.16000   0.35418   0.35418   0.35419
     Eigenvalues ---    0.35419   0.58838
 RFO step:  Lambda=-6.83571533D-04 EMin= 2.97703293D-02
 Linear search not attempted -- first point.
 Iteration  1 RMS(Cart)=  0.02124829 RMS(Int)=  0.00017358
 Iteration  2 RMS(Cart)=  0.00017431 RMS(Int)=  0.00000000
 Iteration  3 RMS(Cart)=  0.00000000 RMS(Int)=  0.00000000
 ClnCor:  largest displacement from symmetrization is 6.62D-09 for atom     3.
 Variable       Old X    -DE/DX   Delta X   Delta X   Delta X     New X
                                 (Linear)    (Quad)   (Total)
    R1        2.51872   0.00511   0.00000   0.00868   0.00868   2.52740
    R2        2.05000   0.00105   0.00000   0.00297   0.00297   2.05297
    R3        2.05002   0.00105   0.00000   0.00296   0.00296   2.05297
    R4        2.05002   0.00105   0.00000   0.00296   0.00296   2.05297
    R5        2.05000   0.00105   0.00000   0.00297   0.00297   2.05297
    A1        2.09887   0.00290   0.00000   0.01803   0.01803   2.11690
    A2        2.09887   0.00290   0.00000   0.01803   0.01803   2.11690
    A3        2.08544  -0.00579   0.00000  -0.03606  -0.03606   2.04939
    A4        2.09887   0.00290   0.00000   0.01803   0.01803   2.11690
    A5        2.09887   0.00290   0.00000   0.01803   0.01803   2.11690
    A6        2.08544  -0.00579   0.00000  -0.03606  -0.03606   2.04939
    D1        0.00000  -0.00000   0.00000  -0.00000   0.00000   0.00000
    D2        3.14159  -0.00000   0.00000  -0.00000   0.00000   3.14159
    D3       -3.14159  -0.00000   0.00000  -0.00000   0.00000  -3.14159
    D4        0.00000  -0.00000   0.00000  -0.00000  -0.00000   0.00000
         Item               Value     Threshold  Converged?
 Maximum Force            0.005794     0.000450     NO 
 RMS     Force            0.002958     0.000300     NO 
 Maximum Displacement     0.038092     0.001800     NO 
 RMS     Displacement     0.021254     0.001200     NO 
 Predicted change in Energy=-3.431565D-04
 GradGradGradGradGradGradGradGradGradGradGradGradGradGradGradGradGradGrad

                          Input orientation:                          
 ---------------------------------------------------------------------
 Center     Atomic      Atomic             Coordinates (Angstroms)
 Number     Number       Type             X           Y           Z
 ---------------------------------------------------------------------
      1          6           0        1.094101    0.410067    0.275936
      2          6           0        2.036099   -0.363167   -0.274976
      3          1           0        1.353443    1.311815    0.823503
      4          1           0        0.039957    0.160726    0.193195
      5          1           0        3.090243   -0.113826   -0.192235
      6          1           0        1.776757   -1.264915   -0.822543
 ---------------------------------------------------------------------
                    Distance matrix (angstroms):
                    1          2          3          4          5
     1  C    0.000000
     2  C    1.337444   0.000000
     3  H    1.086387   2.116185   0.000000
     4  H    1.086387   2.116183   1.856755   0.000000
     5  H    2.116183   1.086387   2.465898   3.086776   0.000000
     6  H    2.116185   1.086387   3.086778   2.465898   1.856755
                    6
     6  H    0.000000
 Stoichiometry    C2H4
 Framework group  C2H[SGH(C2H4)]
 Deg. of freedom     5
 Full point group                 C2H     NOp   4
 Largest Abelian subgroup         C2H     NOp   4
 Largest concise Abelian subgroup C2      NOp   2
                         Standard orientation:                         
 ---------------------------------------------------------------------
 Center     Atomic      Atomic             Coordinates (Angstroms)
 Number     Number       Type             X           Y           Z
 ---------------------------------------------------------------------
      1          6           0        0.000000    0.668722    0.000000
      2          6           0       -0.000000   -0.668722    0.000000
      3          1           0       -0.928376    1.232950    0.000000
      4          1           0        0.928378    1.232947    0.000000
      5          1           0       -0.928378   -1.232947    0.000000
      6          1           0        0.928376   -1.232950    0.000000
 ---------------------------------------------------------------------
 Rotational constants (GHZ):         145.4530973          29.9736651          24.8523222
 Standard basis: 6-31+G(d,p) (6D, 7F)
 There are    22 symmetry adapted cartesian basis functions of AG  symmetry.
 There are     7 symmetry adapted cartesian basis functions of BG  symmetry.
 There are     7 symmetry adapted cartesian basis functions of AU  symmetry.
 There are    22 symmetry adapted cartesian basis functions of BU  symmetry.
 There are    22 symmetry adapted basis functions of AG  symmetry.
 There are     7 symmetry adapted basis functions of BG  symmetry.
 There are     7 symmetry adapted basis functions of AU  symmetry.
 There are    22 symmetry adapted basis functions of BU  symmetry.
    58 basis functions,    92 primitive gaussians,    58 cartesian basis functions
     8 alpha electrons        8 beta electrons
       nuclear repulsion energy        33.2777847993 Hartrees.
 NAtoms=    6 NActive=    6 NUniq=    3 SFac= 4.00D+00 NAtFMM=   60 NAOKFM=F Big=F
 Integral buffers will be    131072 words long.
 Raffenetti 2 integral format.
 Two-electron integral symmetry is turned on.
 One-electron integrals computed using PRISM.
 NBasis=    58 RedAO= T EigKep=  2.21D-04  NBF=    22     7     7    22
 NBsUse=    58 1.00D-06 EigRej= -1.00D+00 NBFU=    22     7     7    22
 Initial guess from the checkpoint file:  "eteno.chk"
 B after Tr=     0.000000   -0.000000    0.000000
         Rot=    1.000000   -0.000000   -0.000000   -0.000001 Ang=  -0.00 deg.
 Initial guess orbital symmetries:
       Occupied  (AG) (BU) (AG) (BU) (BU) (AG) (AG) (AU)
       Virtual   (BG) (AG) (BU) (BU) (AU) (AG) (AG) (BG) (BU) (AG)
                 (BU) (BU) (AG) (BU) (AG) (BU) (AU) (BG) (BU) (AG)
                 (BU) (AG) (AG) (BU) (BU) (AG) (BG) (AU) (AU) (AG)
                 (BU) (AG) (AG) (BU) (BG) (BU) (AU) (BG) (BU) (BG)
                 (AU) (AG) (AG) (BU) (AG) (BU) (BU) (AG) (AG) (BU)
 ExpMin= 4.38D-02 ExpMax= 3.05D+03 ExpMxC= 4.57D+02 IAcc=3 IRadAn=         5 AccDes= 0.00D+00
 Harris functional with IExCor=  402 and IRadAn=       5 diagonalized for initial guess.
 HarFok:  IExCor=  402 AccDes= 0.00D+00 IRadAn=         5 IDoV= 1 UseB2=F ITyADJ=14
 ICtDFT=  3500011 ScaDFX=  1.000000  1.000000  1.000000  1.000000
 FoFCou: FMM=F IPFlag=           0 FMFlag=      100000 FMFlg1=           0
         NFxFlg=           0 DoJE=T BraDBF=F KetDBF=T FulRan=T
         wScrn=  0.000000 ICntrl=       500 IOpCl=  0 I1Cent=   200000004 NGrid=           0
         NMat0=    1 NMatS0=      1 NMatT0=    0 NMatD0=    1 NMtDS0=    0 NMtDT0=    0
 Petite list used in FoFCou.
 Keep R1 ints in memory in symmetry-blocked form, NReq=2351137.
 Requested convergence on RMS density matrix=1.00D-08 within 128 cycles.
 Requested convergence on MAX density matrix=1.00D-06.
 Requested convergence on             energy=1.00D-06.
 No special actions if energy rises.
 SCF Done:  E(RB3LYP) =  -78.5995993299     A.U. after    6 cycles
            NFock=  6  Conv=0.91D-08     -V/T= 2.0110
 Calling FoFJK, ICntrl=      2127 FMM=F ISym2X=1 I1Cent= 0 IOpClX= 0 NMat=1 NMatS=1 NMatT=0.
 ***** Axes restored to original set *****
 -------------------------------------------------------------------
 Center     Atomic                   Forces (Hartrees/Bohr)
 Number     Number              X              Y              Z
 -------------------------------------------------------------------
      1        6           0.003529221   -0.002897528   -0.002064374
      2        6          -0.003529221    0.002897528    0.002064374
      3        1          -0.001069190    0.000364227    0.000303220
      4        1          -0.000464213    0.000894615    0.000593664
      5        1           0.000464213   -0.000894615   -0.000593664
      6        1           0.001069190   -0.000364227   -0.000303220
 -------------------------------------------------------------------
 Cartesian Forces:  Max     0.003529221 RMS     0.001759064

 GradGradGradGradGradGradGradGradGradGradGradGradGradGradGradGradGradGrad
 Berny optimization.
 Using GEDIIS/GDIIS optimizer.
 FormGI is forming the generalized inverse of G from B-inverse, IUseBI=4.
 Internal  Forces:  Max     0.002834010 RMS     0.001021587
 Search for a local minimum.
 Step number   2 out of a maximum of   25
 All quantities printed in internal units (Hartrees-Bohrs-Radians)
 Mixed Optimization -- RFO/linear search
 Update second derivatives using D2CorX and points    1    2
 DE= -4.16D-04 DEPred=-3.43D-04 R= 1.21D+00
 TightC=F SS=  1.41D+00  RLast= 6.33D-02 DXNew= 5.0454D-01 1.8999D-01
 Trust test= 1.21D+00 RLast= 6.33D-02 DXMaxT set to 3.00D-01
 The second derivative matrix:
                          R1        R2        R3        R4        R5
           R1           0.66809
           R2           0.00480   0.35393
           R3           0.00475  -0.00026   0.35392
           R4           0.00475  -0.00026  -0.00026   0.35392
           R5           0.00480  -0.00026  -0.00026  -0.00026   0.35393
           A1           0.00967  -0.00109  -0.00109  -0.00109  -0.00109
           A2           0.00967  -0.00109  -0.00109  -0.00109  -0.00109
           A3          -0.01933   0.00219   0.00218   0.00218   0.00219
           A4           0.00967  -0.00109  -0.00109  -0.00109  -0.00109
           A5           0.00967  -0.00109  -0.00109  -0.00109  -0.00109
           A6          -0.01933   0.00219   0.00218   0.00218   0.00219
           D1          -0.00000  -0.00000  -0.00000  -0.00000  -0.00000
           D2          -0.00000  -0.00000  -0.00000  -0.00000  -0.00000
           D3           0.00000   0.00000   0.00000   0.00000   0.00000
           D4           0.00000   0.00000   0.00000   0.00000   0.00000
                          A1        A2        A3        A4        A5
           A1           0.15609
           A2          -0.00392   0.15608
           A3           0.00783   0.00783   0.14433
           A4          -0.00392  -0.00392   0.00783   0.15608
           A5          -0.00391  -0.00392   0.00783  -0.00392   0.15609
           A6           0.00783   0.00783  -0.01567   0.00783   0.00783
           D1          -0.00000  -0.00000   0.00000  -0.00000  -0.00000
           D2          -0.00000  -0.00000   0.00000  -0.00000  -0.00000
           D3           0.00000   0.00000  -0.00000   0.00000   0.00000
           D4           0.00000   0.00000  -0.00000   0.00000   0.00000
                          A6        D1        D2        D3        D4
           A6           0.14433
           D1           0.00000   0.02977
           D2           0.00000   0.00000   0.02977
           D3          -0.00000   0.00000   0.00000   0.02977
           D4          -0.00000   0.00000   0.00000  -0.00000   0.02977
 ITU=  1  0
 Use linear search instead of GDIIS.
     Eigenvalues ---    0.02977   0.02977   0.02977   0.11072   0.16000
     Eigenvalues ---    0.16000   0.16000   0.35315   0.35418   0.35418
     Eigenvalues ---    0.35419   0.67037
 RFO step:  Lambda=-4.62959552D-05 EMin= 2.97703293D-02
 Quartic linear search produced a step of  0.27742.
 Iteration  1 RMS(Cart)=  0.00679778 RMS(Int)=  0.00002992
 Iteration  2 RMS(Cart)=  0.00002998 RMS(Int)=  0.00000000
 Iteration  3 RMS(Cart)=  0.00000000 RMS(Int)=  0.00000000
 ClnCor:  largest displacement from symmetrization is 1.02D-08 for atom     1.
 Variable       Old X    -DE/DX   Delta X   Delta X   Delta X     New X
                                 (Linear)    (Quad)   (Total)
    R1        2.52740  -0.00283   0.00241  -0.00798  -0.00557   2.52183
    R2        2.05297   0.00020   0.00082   0.00010   0.00092   2.05389
    R3        2.05297   0.00020   0.00082   0.00010   0.00092   2.05389
    R4        2.05297   0.00020   0.00082   0.00010   0.00092   2.05389
    R5        2.05297   0.00020   0.00082   0.00010   0.00092   2.05389
    A1        2.11690   0.00079   0.00500   0.00249   0.00749   2.12439
    A2        2.11690   0.00079   0.00500   0.00249   0.00750   2.12439
    A3        2.04939  -0.00158  -0.01000  -0.00498  -0.01499   2.03440
    A4        2.11690   0.00079   0.00500   0.00249   0.00750   2.12439
    A5        2.11690   0.00079   0.00500   0.00249   0.00749   2.12439
    A6        2.04939  -0.00158  -0.01000  -0.00498  -0.01499   2.03440
    D1        0.00000  -0.00000   0.00000   0.00000   0.00000   0.00000
    D2        3.14159  -0.00000   0.00000  -0.00000   0.00000   3.14159
    D3        3.14159  -0.00000  -0.00000  -0.00000   0.00000   3.14159
    D4        0.00000  -0.00000  -0.00000  -0.00000  -0.00000   0.00000
         Item               Value     Threshold  Converged?
 Maximum Force            0.002834     0.000450     NO 
 RMS     Force            0.001022     0.000300     NO 
 Maximum Displacement     0.012751     0.001800     NO 
 RMS     Displacement     0.006802     0.001200     NO 
 Predicted change in Energy=-4.370282D-05
 GradGradGradGradGradGradGradGradGradGradGradGradGradGradGradGradGradGrad

                          Input orientation:                          
 ---------------------------------------------------------------------
 Center     Atomic      Atomic             Coordinates (Angstroms)
 Number     Number       Type             X           Y           Z
 ---------------------------------------------------------------------
      1          6           0        1.095138    0.409215    0.275329
      2          6           0        2.035062   -0.362315   -0.274369
      3          1           0        1.346695    1.312743    0.824557
      4          1           0        0.038642    0.166416    0.196856
      5          1           0        3.091558   -0.119516   -0.195896
      6          1           0        1.783505   -1.265843   -0.823597
 ---------------------------------------------------------------------
                    Distance matrix (angstroms):
                    1          2          3          4          5
     1  C    0.000000
     2  C    1.334497   0.000000
     3  H    1.086874   2.118326   0.000000
     4  H    1.086873   2.118326   1.849074   0.000000
     5  H    2.118326   1.086873   2.477345   3.091329   0.000000
     6  H    2.118326   1.086874   3.091329   2.477345   1.849074
                    6
     6  H    0.000000
 Stoichiometry    C2H4
 Framework group  C2H[SGH(C2H4)]
 Deg. of freedom     5
 Full point group                 C2H     NOp   4
 Largest Abelian subgroup         C2H     NOp   4
 Largest concise Abelian subgroup C2      NOp   2
                         Standard orientation:                         
 ---------------------------------------------------------------------
 Center     Atomic      Atomic             Coordinates (Angstroms)
 Number     Number       Type             X           Y           Z
 ---------------------------------------------------------------------
      1          6           0       -0.000000    0.667249    0.000000
      2          6           0        0.000000   -0.667249    0.000000
      3          1           0       -0.924538    1.238672    0.000000
      4          1           0        0.924537    1.238673    0.000000
      5          1           0       -0.924537   -1.238673   -0.000000
      6          1           0        0.924538   -1.238672    0.000000
 ---------------------------------------------------------------------
 Rotational constants (GHZ):         146.6639350          29.9562730          24.8754371
 Standard basis: 6-31+G(d,p) (6D, 7F)
 There are    22 symmetry adapted cartesian basis functions of AG  symmetry.
 There are     7 symmetry adapted cartesian basis functions of BG  symmetry.
 There are     7 symmetry adapted cartesian basis functions of AU  symmetry.
 There are    22 symmetry adapted cartesian basis functions of BU  symmetry.
 There are    22 symmetry adapted basis functions of AG  symmetry.
 There are     7 symmetry adapted basis functions of BG  symmetry.
 There are     7 symmetry adapted basis functions of AU  symmetry.
 There are    22 symmetry adapted basis functions of BU  symmetry.
    58 basis functions,    92 primitive gaussians,    58 cartesian basis functions
     8 alpha electrons        8 beta electrons
       nuclear repulsion energy        33.2978147238 Hartrees.
 NAtoms=    6 NActive=    6 NUniq=    3 SFac= 4.00D+00 NAtFMM=   60 NAOKFM=F Big=F
 Integral buffers will be    131072 words long.
 Raffenetti 2 integral format.
 Two-electron integral symmetry is turned on.
 One-electron integrals computed using PRISM.
 NBasis=    58 RedAO= T EigKep=  2.18D-04  NBF=    22     7     7    22
 NBsUse=    58 1.00D-06 EigRej= -1.00D+00 NBFU=    22     7     7    22
 Initial guess from the checkpoint file:  "eteno.chk"
 B after Tr=     0.000000    0.000000   -0.000000
         Rot=    1.000000    0.000000    0.000000   -0.000000 Ang=  -0.00 deg.
 Initial guess orbital symmetries:
       Occupied  (AG) (BU) (AG) (BU) (BU) (AG) (AG) (AU)
       Virtual   (BG) (AG) (BU) (BU) (AU) (AG) (AG) (BG) (BU) (AG)
                 (BU) (BU) (AG) (BU) (AG) (BU) (AU) (BG) (BU) (AG)
                 (BU) (AG) (AG) (BU) (BU) (AG) (BG) (AU) (AU) (AG)
                 (BU) (AG) (AG) (BU) (BG) (BU) (AU) (BG) (BU) (BG)
                 (AU) (AG) (AG) (BU) (AG) (BU) (BU) (AG) (AG) (BU)
 Keep R1 ints in memory in symmetry-blocked form, NReq=2351137.
 Requested convergence on RMS density matrix=1.00D-08 within 128 cycles.
 Requested convergence on MAX density matrix=1.00D-06.
 Requested convergence on             energy=1.00D-06.
 No special actions if energy rises.
 SCF Done:  E(RB3LYP) =  -78.5996443444     A.U. after    6 cycles
            NFock=  6  Conv=0.51D-08     -V/T= 2.0109
 Calling FoFJK, ICntrl=      2127 FMM=F ISym2X=1 I1Cent= 0 IOpClX= 0 NMat=1 NMatS=1 NMatT=0.
 ***** Axes restored to original set *****
 -------------------------------------------------------------------
 Center     Atomic                   Forces (Hartrees/Bohr)
 Number     Number              X              Y              Z
 -------------------------------------------------------------------
      1        6           0.000269621   -0.000220881   -0.000157410
      2        6          -0.000269621    0.000220881    0.000157410
      3        1          -0.000000584    0.000026512    0.000016672
      4        1          -0.000031560   -0.000000478    0.000001906
      5        1           0.000031560    0.000000478   -0.000001906
      6        1           0.000000584   -0.000026512   -0.000016672
 -------------------------------------------------------------------
 Cartesian Forces:  Max     0.000269621 RMS     0.000128341

 GradGradGradGradGradGradGradGradGradGradGradGradGradGradGradGradGradGrad
 Berny optimization.
 Using GEDIIS/GDIIS optimizer.
 FormGI is forming the generalized inverse of G from B-inverse, IUseBI=4.
 Internal  Forces:  Max     0.000337099 RMS     0.000088580
 Search for a local minimum.
 Step number   3 out of a maximum of   25
 All quantities printed in internal units (Hartrees-Bohrs-Radians)
 Mixed Optimization -- En-DIIS/RFO-DIIS
 Update second derivatives using D2CorX and points    1    2    3
 DE= -4.50D-05 DEPred=-4.37D-05 R= 1.03D+00
 TightC=F SS=  1.41D+00  RLast= 2.66D-02 DXNew= 5.0454D-01 7.9839D-02
 Trust test= 1.03D+00 RLast= 2.66D-02 DXMaxT set to 3.00D-01
 The second derivative matrix:
                          R1        R2        R3        R4        R5
           R1           0.65706
           R2           0.00610   0.35378
           R3           0.00606  -0.00041   0.35377
           R4           0.00606  -0.00041  -0.00041   0.35377
           R5           0.00610  -0.00041  -0.00041  -0.00041   0.35378
           A1           0.01267  -0.00134  -0.00135  -0.00135  -0.00134
           A2           0.01267  -0.00134  -0.00135  -0.00135  -0.00134
           A3          -0.02534   0.00269   0.00269   0.00269   0.00269
           A4           0.01267  -0.00134  -0.00135  -0.00135  -0.00134
           A5           0.01267  -0.00134  -0.00135  -0.00135  -0.00134
           A6          -0.02534   0.00269   0.00269   0.00269   0.00269
           D1           0.00000  -0.00000  -0.00000  -0.00000  -0.00000
           D2           0.00000  -0.00000  -0.00000  -0.00000  -0.00000
           D3          -0.00000   0.00000   0.00000   0.00000   0.00000
           D4           0.00000  -0.00000  -0.00000  -0.00000  -0.00000
                          A1        A2        A3        A4        A5
           A1           0.15622
           A2          -0.00378   0.15622
           A3           0.00757   0.00757   0.14487
           A4          -0.00378  -0.00378   0.00757   0.15622
           A5          -0.00378  -0.00378   0.00757  -0.00378   0.15622
           A6           0.00757   0.00757  -0.01513   0.00757   0.00757
           D1          -0.00000  -0.00000   0.00000  -0.00000  -0.00000
           D2          -0.00000  -0.00000   0.00000  -0.00000  -0.00000
           D3           0.00000   0.00000  -0.00000   0.00000   0.00000
           D4          -0.00000  -0.00000   0.00000  -0.00000  -0.00000
                          A6        D1        D2        D3        D4
           A6           0.14487
           D1           0.00000   0.02977
           D2           0.00000  -0.00000   0.02977
           D3          -0.00000   0.00000   0.00000   0.02977
           D4           0.00000  -0.00000  -0.00000   0.00000   0.02977
 ITU=  1  1  0
 Use linear search instead of GDIIS.
     Eigenvalues ---    0.02977   0.02977   0.02977   0.11064   0.16000
     Eigenvalues ---    0.16000   0.16000   0.35256   0.35418   0.35418
     Eigenvalues ---    0.35419   0.66101
 RFO step:  Lambda=-1.30768730D-07 EMin= 2.97703293D-02
 Quartic linear search produced a step of  0.02894.
 Iteration  1 RMS(Cart)=  0.00010132 RMS(Int)=  0.00000001
 Iteration  2 RMS(Cart)=  0.00000001 RMS(Int)=  0.00000001
 ClnCor:  largest displacement from symmetrization is 5.50D-10 for atom     6.
 Variable       Old X    -DE/DX   Delta X   Delta X   Delta X     New X
                                 (Linear)    (Quad)   (Total)
    R1        2.52183  -0.00034  -0.00016  -0.00038  -0.00054   2.52129
    R2        2.05389   0.00003   0.00003   0.00007   0.00010   2.05399
    R3        2.05389   0.00003   0.00003   0.00007   0.00010   2.05399
    R4        2.05389   0.00003   0.00003   0.00007   0.00010   2.05399
    R5        2.05389   0.00003   0.00003   0.00007   0.00010   2.05399
    A1        2.12439   0.00001   0.00022  -0.00011   0.00011   2.12450
    A2        2.12439   0.00001   0.00022  -0.00011   0.00011   2.12450
    A3        2.03440  -0.00001  -0.00043   0.00021  -0.00022   2.03418
    A4        2.12439   0.00001   0.00022  -0.00011   0.00011   2.12450
    A5        2.12439   0.00001   0.00022  -0.00011   0.00011   2.12450
    A6        2.03440  -0.00001  -0.00043   0.00021  -0.00022   2.03418
    D1        0.00000  -0.00000   0.00000  -0.00000   0.00000   0.00000
    D2       -3.14159  -0.00000   0.00000  -0.00000  -0.00000   3.14159
    D3        3.14159  -0.00000  -0.00000   0.00000   0.00000   3.14159
    D4        0.00000  -0.00000   0.00000   0.00000  -0.00000   0.00000
         Item               Value     Threshold  Converged?
 Maximum Force            0.000337     0.000450     YES
 RMS     Force            0.000089     0.000300     YES
 Maximum Displacement     0.000191     0.001800     YES
 RMS     Displacement     0.000101     0.001200     YES
 Predicted change in Energy=-1.011729D-07
 Optimization completed.
    -- Stationary point found.
                           ----------------------------
                           !   Optimized Parameters   !
                           ! (Angstroms and Degrees)  !
 --------------------------                            --------------------------
 ! Name  Definition              Value          Derivative Info.                !
 --------------------------------------------------------------------------------
 ! R1    R(1,2)                  1.3345         -DE/DX =   -0.0003              !
 ! R2    R(1,3)                  1.0869         -DE/DX =    0.0                 !
 ! R3    R(1,4)                  1.0869         -DE/DX =    0.0                 !
 ! R4    R(2,5)                  1.0869         -DE/DX =    0.0                 !
 ! R5    R(2,6)                  1.0869         -DE/DX =    0.0                 !
 ! A1    A(2,1,3)              121.7187         -DE/DX =    0.0                 !
 ! A2    A(2,1,4)              121.7188         -DE/DX =    0.0                 !
 ! A3    A(3,1,4)              116.5625         -DE/DX =    0.0                 !
 ! A4    A(1,2,5)              121.7188         -DE/DX =    0.0                 !
 ! A5    A(1,2,6)              121.7187         -DE/DX =    0.0                 !
 ! A6    A(5,2,6)              116.5625         -DE/DX =    0.0                 !
 ! D1    D(3,1,2,5)              0.0            -DE/DX =    0.0                 !
 ! D2    D(3,1,2,6)            180.0            -DE/DX =    0.0                 !
 ! D3    D(4,1,2,5)            180.0            -DE/DX =    0.0                 !
 ! D4    D(4,1,2,6)              0.0            -DE/DX =    0.0                 !
 --------------------------------------------------------------------------------
 GradGradGradGradGradGradGradGradGradGradGradGradGradGradGradGradGradGrad

                          Input orientation:                          
 ---------------------------------------------------------------------
 Center     Atomic      Atomic             Coordinates (Angstroms)
 Number     Number       Type             X           Y           Z
 ---------------------------------------------------------------------
      1          6           0        1.095138    0.409215    0.275329
      2          6           0        2.035062   -0.362315   -0.274369
      3          1           0        1.346695    1.312743    0.824557
      4          1           0        0.038642    0.166416    0.196856
      5          1           0        3.091558   -0.119516   -0.195896
      6          1           0        1.783505   -1.265843   -0.823597
 ---------------------------------------------------------------------
                    Distance matrix (angstroms):
                    1          2          3          4          5
     1  C    0.000000
     2  C    1.334497   0.000000
     3  H    1.086874   2.118326   0.000000
     4  H    1.086873   2.118326   1.849074   0.000000
     5  H    2.118326   1.086873   2.477345   3.091329   0.000000
     6  H    2.118326   1.086874   3.091329   2.477345   1.849074
                    6
     6  H    0.000000
 Stoichiometry    C2H4
 Framework group  C2H[SGH(C2H4)]
 Deg. of freedom     5
 Full point group                 C2H     NOp   4
 Largest Abelian subgroup         C2H     NOp   4
 Largest concise Abelian subgroup C2      NOp   2
                         Standard orientation:                         
 ---------------------------------------------------------------------
 Center     Atomic      Atomic             Coordinates (Angstroms)
 Number     Number       Type             X           Y           Z
 ---------------------------------------------------------------------
      1          6           0       -0.000000    0.667249    0.000000
      2          6           0        0.000000   -0.667249   -0.000000
      3          1           0       -0.924538    1.238672    0.000000
      4          1           0        0.924537    1.238673   -0.000000
      5          1           0       -0.924537   -1.238673   -0.000000
      6          1           0        0.924538   -1.238672    0.000000
 ---------------------------------------------------------------------
 Rotational constants (GHZ):         146.6639350          29.9562730          24.8754371

 **********************************************************************

            Population analysis using the SCF Density.

 **********************************************************************

 Orbital symmetries:
       Occupied  (AG) (BU) (AG) (BU) (BU) (AG) (AG) (AU)
       Virtual   (BG) (AG) (BU) (BU) (AU) (AG) (AG) (BG) (BU) (AG)
                 (BU) (BU) (AG) (BU) (AG) (BU) (AU) (BG) (BU) (AG)
                 (BU) (AG) (AG) (BU) (BU) (AG) (BG) (AU) (AU) (AG)
                 (BU) (AG) (AG) (BU) (BG) (BU) (AU) (BG) (BU) (BG)
                 (AU) (AG) (AG) (BU) (AG) (BU) (BU) (AG) (AG) (BU)
 The electronic state is 1-AG.
 Alpha  occ. eigenvalues --  -10.19578 -10.19491  -0.76508  -0.58535  -0.47297
 Alpha  occ. eigenvalues --   -0.42508  -0.36082  -0.27822
 Alpha virt. eigenvalues --   -0.00959   0.02466   0.03246   0.04669   0.06927
 Alpha virt. eigenvalues --    0.08649   0.08717   0.12828   0.15733   0.18051
 Alpha virt. eigenvalues --    0.19191   0.24815   0.34584   0.35049   0.56814
 Alpha virt. eigenvalues --    0.64758   0.67380   0.72064   0.76114   0.81835
 Alpha virt. eigenvalues --    0.89062   0.91842   0.95372   0.99497   1.16388
 Alpha virt. eigenvalues --    1.19043   1.37581   1.37941   1.51898   1.84251
 Alpha virt. eigenvalues --    1.91229   1.98068   2.03213   2.05653   2.13577
 Alpha virt. eigenvalues --    2.21933   2.36038   2.43921   2.52124   2.60879
 Alpha virt. eigenvalues --    2.66903   2.71314   2.75093   3.02195   3.18043
 Alpha virt. eigenvalues --    3.33519   3.47177   3.76365   4.23019   4.51294
          Condensed to atoms (all electrons):
               1          2          3          4          5          6
     1  C    4.846167   0.704559   0.387869   0.387869  -0.027302  -0.027302
     2  C    0.704559   4.846167  -0.027302  -0.027302   0.387869   0.387869
     3  H    0.387869  -0.027302   0.543840  -0.036469  -0.008261   0.004393
     4  H    0.387869  -0.027302  -0.036469   0.543840   0.004393  -0.008261
     5  H   -0.027302   0.387869  -0.008261   0.004393   0.543840  -0.036469
     6  H   -0.027302   0.387869   0.004393  -0.008261  -0.036469   0.543840
 Mulliken charges:
               1
     1  C   -0.271861
     2  C   -0.271861
     3  H    0.135930
     4  H    0.135931
     5  H    0.135931
     6  H    0.135930
 Sum of Mulliken charges =   0.00000
 Mulliken charges with hydrogens summed into heavy atoms:
               1
     1  C    0.000000
     2  C    0.000000
 Electronic spatial extent (au):  <R**2>=             83.5738
 Charge=              0.0000 electrons
 Dipole moment (field-independent basis, Debye):
    X=              0.0000    Y=             -0.0000    Z=              0.0000  Tot=              0.0000
 Quadrupole moment (field-independent basis, Debye-Ang):
   XX=            -12.4465   YY=            -12.4076   ZZ=            -15.9928
   XY=              0.0000   XZ=              0.0000   YZ=              0.0000
 Traceless Quadrupole moment (field-independent basis, Debye-Ang):
   XX=              1.1692   YY=              1.2080   ZZ=             -2.3772
   XY=              0.0000   XZ=              0.0000   YZ=              0.0000
 Octapole moment (field-independent basis, Debye-Ang**2):
  XXX=              0.0000  YYY=             -0.0000  ZZZ=             -0.0000  XYY=              0.0000
  XXY=             -0.0000  XXZ=             -0.0000  XZZ=             -0.0000  YZZ=              0.0000
  YYZ=             -0.0000  XYZ=             -0.0000
 Hexadecapole moment (field-independent basis, Debye-Ang**3):
 XXXX=            -28.4966 YYYY=            -70.9945 ZZZZ=            -22.2908 XXXY=              0.0000
 XXXZ=              0.0000 YYYX=              0.0000 YYYZ=              0.0000 ZZZX=              0.0000
 ZZZY=             -0.0000 XXYY=            -14.1657 XXZZ=             -9.0994 YYZZ=            -16.5850
 XXYZ=              0.0000 YYXZ=              0.0000 ZZXY=              0.0000
 N-N= 3.329781472378D+01 E-N=-2.478373898807D+02  KE= 7.774975321022D+01
 Symmetry AG   KE= 3.949178352810D+01
 Symmetry BG   KE= 1.416834504708D-19
 Symmetry AU   KE= 2.029581415371D+00
 Symmetry BU   KE= 3.622838826675D+01
 ******************************Gaussian NBO Version 3.1******************************
             N A T U R A L   A T O M I C   O R B I T A L   A N D
          N A T U R A L   B O N D   O R B I T A L   A N A L Y S I S
 ******************************Gaussian NBO Version 3.1******************************
       /RESON  / : Allow strongly delocalized NBO set

 Analyzing the SCF density

 Job title: eteno                                                           

 Storage needed:     10444 in NPA ( 104857372 available)
 GSVD:  LWork=        1060 too small for GESVD, short by        3260 words or        3260 for optimal perf.


 NATURAL POPULATIONS:  Natural atomic orbital occupancies 
                                                          
   NAO  Atom  No  lang   Type(AO)    Occupancy      Energy
 ----------------------------------------------------------
     1    C    1  S      Cor( 1S)     1.99926     -10.05951
     2    C    1  S      Val( 2S)     1.07826      -0.24417
     3    C    1  S      Ryd( 4S)     0.00148       0.87579
     4    C    1  S      Ryd( 3S)     0.00021       0.59861
     5    C    1  S      Ryd( 5S)     0.00000       3.95340
     6    C    1  px     Val( 2p)     1.22116      -0.04909
     7    C    1  px     Ryd( 4p)     0.00334       0.82528
     8    C    1  px     Ryd( 3p)     0.00036       0.35982
     9    C    1  py     Val( 2p)     1.13680      -0.05181
    10    C    1  py     Ryd( 4p)     0.00366       0.41874
    11    C    1  py     Ryd( 3p)     0.00011       0.34220
    12    C    1  pz     Val( 2p)     0.99614      -0.11717
    13    C    1  pz     Ryd( 4p)     0.00272       0.43601
    14    C    1  pz     Ryd( 3p)     0.00029       0.34486
    15    C    1  dxy    Ryd( 3d)     0.00081       2.65806
    16    C    1  dxz    Ryd( 3d)     0.00000       1.85854
    17    C    1  dyz    Ryd( 3d)     0.00062       1.96414
    18    C    1  dx2y2  Ryd( 3d)     0.00054       2.48508
    19    C    1  dz2    Ryd( 3d)     0.00043       2.26752

    20    C    2  S      Cor( 1S)     1.99926     -10.05951
    21    C    2  S      Val( 2S)     1.07826      -0.24417
    22    C    2  S      Ryd( 4S)     0.00148       0.87579
    23    C    2  S      Ryd( 3S)     0.00021       0.59861
    24    C    2  S      Ryd( 5S)     0.00000       3.95340
    25    C    2  px     Val( 2p)     1.22116      -0.04909
    26    C    2  px     Ryd( 4p)     0.00334       0.82528
    27    C    2  px     Ryd( 3p)     0.00036       0.35982
    28    C    2  py     Val( 2p)     1.13680      -0.05181
    29    C    2  py     Ryd( 4p)     0.00366       0.41874
    30    C    2  py     Ryd( 3p)     0.00011       0.34220
    31    C    2  pz     Val( 2p)     0.99614      -0.11717
    32    C    2  pz     Ryd( 4p)     0.00272       0.43601
    33    C    2  pz     Ryd( 3p)     0.00029       0.34486
    34    C    2  dxy    Ryd( 3d)     0.00081       2.65806
    35    C    2  dxz    Ryd( 3d)     0.00000       1.85854
    36    C    2  dyz    Ryd( 3d)     0.00062       1.96414
    37    C    2  dx2y2  Ryd( 3d)     0.00054       2.48508
    38    C    2  dz2    Ryd( 3d)     0.00043       2.26752

    39    H    3  S      Val( 1S)     0.77539       0.08621
    40    H    3  S      Ryd( 2S)     0.00091       0.61291
    41    H    3  px     Ryd( 2p)     0.00034       2.84580
    42    H    3  py     Ryd( 2p)     0.00016       2.56607
    43    H    3  pz     Ryd( 2p)     0.00012       2.20469

    44    H    4  S      Val( 1S)     0.77539       0.08621
    45    H    4  S      Ryd( 2S)     0.00091       0.61291
    46    H    4  px     Ryd( 2p)     0.00034       2.84580
    47    H    4  py     Ryd( 2p)     0.00016       2.56607
    48    H    4  pz     Ryd( 2p)     0.00012       2.20469

    49    H    5  S      Val( 1S)     0.77539       0.08621
    50    H    5  S      Ryd( 2S)     0.00091       0.61291
    51    H    5  px     Ryd( 2p)     0.00034       2.84580
    52    H    5  py     Ryd( 2p)     0.00016       2.56607
    53    H    5  pz     Ryd( 2p)     0.00012       2.20469

    54    H    6  S      Val( 1S)     0.77539       0.08621
    55    H    6  S      Ryd( 2S)     0.00091       0.61291
    56    H    6  px     Ryd( 2p)     0.00034       2.84580
    57    H    6  py     Ryd( 2p)     0.00016       2.56607
    58    H    6  pz     Ryd( 2p)     0.00012       2.20469

 WARNING:  Population inversion found on atom  C    1
           Population inversion found on atom  C    2


 Summary of Natural Population Analysis:                  
                                                          
                                       Natural Population 
                Natural  -----------------------------------------------
    Atom  No    Charge         Core      Valence    Rydberg      Total
 -----------------------------------------------------------------------
      C    1   -0.44616      1.99926     4.43236    0.01455     6.44616
      C    2   -0.44616      1.99926     4.43236    0.01455     6.44616
      H    3    0.22308      0.00000     0.77539    0.00153     0.77692
      H    4    0.22308      0.00000     0.77539    0.00153     0.77692
      H    5    0.22308      0.00000     0.77539    0.00153     0.77692
      H    6    0.22308      0.00000     0.77539    0.00153     0.77692
 =======================================================================
   * Total *   -0.00000      3.99851    11.96628    0.03520    16.00000

                                 Natural Population      
 --------------------------------------------------------
   Core                       3.99851 ( 99.9629% of   4)
   Valence                   11.96628 ( 99.7190% of  12)
   Natural Minimal Basis     15.96480 ( 99.7800% of  16)
   Natural Rydberg Basis      0.03520 (  0.2200% of  16)
 --------------------------------------------------------

    Atom  No          Natural Electron Configuration
 ----------------------------------------------------------------------------
      C    1      [core]2S( 1.08)2p( 3.35)4p( 0.01)
      C    2      [core]2S( 1.08)2p( 3.35)4p( 0.01)
      H    3            1S( 0.78)
      H    4            1S( 0.78)
      H    5            1S( 0.78)
      H    6            1S( 0.78)


 NBO analysis skipped by request.
 1\1\GINC-DYME\FOpt\RB3LYP\6-31+G(d,p)\C2H4\MONTOYA\18-Feb-2019\0\\#n B
 3LYP/6-31+G(d,p) Opt Pop=NPA\\eteno\\0,1\C,1.0951380097,0.4092147631,0
 .2753288398\C,2.0350619903,-0.3623147631,-0.2743688398\H,1.3466949867,
 1.3127426087,0.8245567887\H,0.0386415755,0.166416445,0.1968559404\H,3.
 0915584245,-0.119516445,-0.1958959404\H,1.7835050133,-1.2658426087,-0.
 8235967887\\Version=EM64L-G16RevB.01\State=1-AG\HF=-78.5996443\RMSD=5.
 052e-09\RMSF=1.283e-04\Dipole=0.,0.,0.\Quadrupole=0.8743659,0.1369066,
 -1.0112724,0.0709053,-0.1401584,1.1896579\PG=C02H [SGH(C2H4)]\\@


 EXPERIENCE IS A WONDERFUL THING.  IT ENABLES
 YOU TO RECOGNIZE A MISTAKE WHEN YOU MAKE IT AGAIN.
           - BACK OF A SUGAR PACKET
 Job cpu time:       0 days  0 hours  0 minutes 20.4 seconds.
 Elapsed time:       0 days  0 hours  0 minutes 21.9 seconds.
 File lengths (MBytes):  RWF=     17 Int=      0 D2E=      0 Chk=      2 Scr=      2
 Normal termination of Gaussian 16 at Mon Feb 18 11:24:04 2019.
