eteno                                                                   
FOpt      RB3LYP                                                      6-31+G(d,p)         
Number of atoms                            I                6
Info1-9                                    I   N=           9
          13          13           0           0           0         110
           2          18        -502
Full Title                                 C   N=           1
eteno       
Route                                      C   N=           3
#n B3LYP/6-31+G(d,p) Opt Pop=NPA    
Charge                                     I                0
Multiplicity                               I                1
Number of electrons                        I               16
Number of alpha electrons                  I                8
Number of beta electrons                   I                8
Number of basis functions                  I               58
Number of independent functions            I               58
Number of point charges in /Mol/           I                0
Number of translation vectors              I                0
Atomic numbers                             I   N=           6
           6           6           1           1           1           1
Nuclear charges                            R   N=           6
  6.00000000E+00  6.00000000E+00  1.00000000E+00  1.00000000E+00  1.00000000E+00
  1.00000000E+00
Current cartesian coordinates              R   N=          18
 -2.27595720E-15  1.26091699E+00  3.33066907E-16  4.10782519E-15 -1.26091699E+00
 -2.77555756E-16 -1.74712281E+00  2.34075135E+00  1.55431223E-15  1.74712119E+00
  2.34075219E+00 -2.22044605E-16 -1.74712119E+00 -2.34075219E+00 -3.88578059E-16
  1.74712281E+00 -2.34075135E+00  0.00000000E+00
Number of symbols in /Mol/                 I                0
Force Field                                I                0
Atom Types                                 C   N=           6
                                                            
            
Int Atom Types                             I   N=           6
           0           0           0           0           0           0
MM charges                                 R   N=           6
  0.00000000E+00  0.00000000E+00  0.00000000E+00  0.00000000E+00  0.00000000E+00
  0.00000000E+00
Integer atomic weights                     I   N=           6
          12          12           1           1           1           1
Real atomic weights                        R   N=           6
  1.20000000E+01  1.20000000E+01  1.00782504E+00  1.00782504E+00  1.00782504E+00
  1.00782504E+00
Atom fragment info                         I   N=           6
           0           0           0           0           0           0
Atom residue num                           I   N=           6
           0           0           0           0           0           0
Nuclear spins                              I   N=           6
           0           0           1           1           1           1
Nuclear ZEff                               R   N=           6
 -3.60000000E+00 -3.60000000E+00 -1.00000000E+00 -1.00000000E+00 -1.00000000E+00
 -1.00000000E+00
Nuclear ZNuc                               R   N=           6
  6.00000000E+00  6.00000000E+00  1.00000000E+00  1.00000000E+00  1.00000000E+00
  1.00000000E+00
Nuclear QMom                               R   N=           6
  0.00000000E+00  0.00000000E+00  0.00000000E+00  0.00000000E+00  0.00000000E+00
  0.00000000E+00
Nuclear GFac                               R   N=           6
  0.00000000E+00  0.00000000E+00  2.79284600E+00  2.79284600E+00  2.79284600E+00
  2.79284600E+00
MicOpt                                     I   N=           6
          -1          -1          -1          -1          -1          -1
Number of residues                         I                0
Number of secondary structures             I                0
Redundant internal dimensions              I   N=           4
          15           5           6           4
Redundant internal coordinate indices      I   N=          60
           1           2           0           0           1           3
           0           0           1           4           0           0
           2           5           0           0           2           6
           0           0           2           1           3           0
           2           1           4           0           3           1
           4           0           1           2           5           0
           1           2           6           0           5           2
           6           0           3           1           2           5
           3           1           2           6           4           1
           2           5           4           1           2           6
Redundant internal coordinates             R   N=          15
  2.52183398E+00  2.05389396E+00  2.05389301E+00  2.05389301E+00  2.05389396E+00
  2.12439267E+00  2.12439343E+00  2.03439921E+00  2.12439343E+00  2.12439267E+00
  2.03439921E+00  0.00000000E+00  3.14159265E+00  3.14159265E+00  1.49011612E-08
ZRed-IntVec                                I   N=          15
           0           0           0           0           0           0
           0           0           0           0           0           0
           0           0           0
ZRed-FPVec                                 R   N=          15
  0.00000000E+00  0.00000000E+00  0.00000000E+00  0.00000000E+00  0.00000000E+00
  0.00000000E+00  0.00000000E+00  0.00000000E+00  0.00000000E+00  0.00000000E+00
  0.00000000E+00  0.00000000E+00  0.00000000E+00  0.00000000E+00  0.00000000E+00
ZRed-Constraint1                           R   N=          15
  2.51871984E+00  2.05000124E+00  2.05001875E+00  2.05001875E+00  2.05000124E+00
  2.09887482E+00  2.09886749E+00  2.08544299E+00  2.09886749E+00  2.09887482E+00
  2.08544299E+00 -2.06352838E-06  3.14159265E+00  3.14159264E+00  2.06352838E-06
ZRed-Constraint2                           R   N=          15
  0.00000000E+00  0.00000000E+00  0.00000000E+00  0.00000000E+00  0.00000000E+00
  0.00000000E+00  0.00000000E+00  0.00000000E+00  0.00000000E+00  0.00000000E+00
  0.00000000E+00  0.00000000E+00  0.00000000E+00  0.00000000E+00  0.00000000E+00
SymInf integers                            I   N=          26
           2           4           1           1           1          -1
          -1           1           1           1          -1          -1
          -1          -1           0           0           0           0
           0           0           0           0           0           0
           0           0
RotTr to input orientation                 R   N=          12
 -7.07409704E-01 -6.19946110E-01 -3.39467717E-01 -7.04328244E-01  5.78142539E-01
  4.11913739E-01 -5.91035929E-02  5.30488477E-01 -8.45629198E-01  2.95761036E+00
  4.43140776E-02  9.07068540E-04
Number of contracted shells                I               22
Number of primitive shells                 I               44
Pure/Cartesian d shells                    I                1
Pure/Cartesian f shells                    I                0
Highest angular momentum                   I                2
Largest degree of contraction              I                6
Shell types                                I   N=          22
           0          -1          -1          -1           2           0
          -1          -1          -1           2           0           0
           1           0           0           1           0           0
           1           0           0           1
Number of primitives per shell             I   N=          22
           6           3           1           1           1           6
           3           1           1           1           3           1
           1           3           1           1           3           1
           1           3           1           1
Shell to atom map                          I   N=          22
           1           1           1           1           1           2
           2           2           2           2           3           3
           3           4           4           4           5           5
           5           6           6           6
Primitive exponents                        R   N=          44
  3.04752488E+03  4.57369518E+02  1.03948685E+02  2.92101553E+01  9.28666296E+00
  3.16392696E+00  7.86827235E+00  1.88128854E+00  5.44249258E-01  1.68714478E-01
  4.38000000E-02  8.00000000E-01  3.04752488E+03  4.57369518E+02  1.03948685E+02
  2.92101553E+01  9.28666296E+00  3.16392696E+00  7.86827235E+00  1.88128854E+00
  5.44249258E-01  1.68714478E-01  4.38000000E-02  8.00000000E-01  1.87311370E+01
  2.82539436E+00  6.40121692E-01  1.61277759E-01  1.10000000E+00  1.87311370E+01
  2.82539436E+00  6.40121692E-01  1.61277759E-01  1.10000000E+00  1.87311370E+01
  2.82539436E+00  6.40121692E-01  1.61277759E-01  1.10000000E+00  1.87311370E+01
  2.82539436E+00  6.40121692E-01  1.61277759E-01  1.10000000E+00
Contraction coefficients                   R   N=          44
  1.83473713E-03  1.40373228E-02  6.88426223E-02  2.32184443E-01  4.67941348E-01
  3.62311985E-01 -1.19332420E-01 -1.60854152E-01  1.14345644E+00  1.00000000E+00
  1.00000000E+00  1.00000000E+00  1.83473713E-03  1.40373228E-02  6.88426223E-02
  2.32184443E-01  4.67941348E-01  3.62311985E-01 -1.19332420E-01 -1.60854152E-01
  1.14345644E+00  1.00000000E+00  1.00000000E+00  1.00000000E+00  3.34946043E-02
  2.34726953E-01  8.13757326E-01  1.00000000E+00  1.00000000E+00  3.34946043E-02
  2.34726953E-01  8.13757326E-01  1.00000000E+00  1.00000000E+00  3.34946043E-02
  2.34726953E-01  8.13757326E-01  1.00000000E+00  1.00000000E+00  3.34946043E-02
  2.34726953E-01  8.13757326E-01  1.00000000E+00  1.00000000E+00
P(S=P) Contraction coefficients            R   N=          44
  0.00000000E+00  0.00000000E+00  0.00000000E+00  0.00000000E+00  0.00000000E+00
  0.00000000E+00  6.89990666E-02  3.16423961E-01  7.44308291E-01  1.00000000E+00
  1.00000000E+00  0.00000000E+00  0.00000000E+00  0.00000000E+00  0.00000000E+00
  0.00000000E+00  0.00000000E+00  0.00000000E+00  6.89990666E-02  3.16423961E-01
  7.44308291E-01  1.00000000E+00  1.00000000E+00  0.00000000E+00  0.00000000E+00
  0.00000000E+00  0.00000000E+00  0.00000000E+00  0.00000000E+00  0.00000000E+00
  0.00000000E+00  0.00000000E+00  0.00000000E+00  0.00000000E+00  0.00000000E+00
  0.00000000E+00  0.00000000E+00  0.00000000E+00  0.00000000E+00  0.00000000E+00
  0.00000000E+00  0.00000000E+00  0.00000000E+00  0.00000000E+00
Coordinates of each shell                  R   N=          66
 -1.08246745E-15  1.26091699E+00  1.11022302E-16 -1.08246745E-15  1.26091699E+00
  1.11022302E-16 -1.08246745E-15  1.26091699E+00  1.11022302E-16 -1.08246745E-15
  1.26091699E+00  1.11022302E-16 -1.08246745E-15  1.26091699E+00  1.11022302E-16
  1.58206781E-15 -1.26091699E+00  5.55111512E-17  1.58206781E-15 -1.26091699E+00
  5.55111512E-17  1.58206781E-15 -1.26091699E+00  5.55111512E-17  1.58206781E-15
 -1.26091699E+00  5.55111512E-17  1.58206781E-15 -1.26091699E+00  5.55111512E-17
 -1.74712281E+00  2.34075135E+00  6.66133815E-16 -1.74712281E+00  2.34075135E+00
  6.66133815E-16 -1.74712281E+00  2.34075135E+00  6.66133815E-16  1.74712119E+00
  2.34075219E+00 -5.55111512E-17  1.74712119E+00  2.34075219E+00 -5.55111512E-17
  1.74712119E+00  2.34075219E+00 -5.55111512E-17 -1.74712119E+00 -2.34075219E+00
  0.00000000E+00 -1.74712119E+00 -2.34075219E+00  0.00000000E+00 -1.74712119E+00
 -2.34075219E+00  0.00000000E+00  1.74712281E+00 -2.34075135E+00  0.00000000E+00
  1.74712281E+00 -2.34075135E+00  0.00000000E+00  1.74712281E+00 -2.34075135E+00
  0.00000000E+00
Num ILSW                                   I              100
ILSW                                       I   N=         100
           0           1           0           1           2           0
           0           0           0           0         402          -1
           5           0           0           0           2           0
           0           0           1           0           1           0
           1           0           0           0           0           0
           0           0      100000           0          -1           0
           0           0           0           0           0           0
           0           0           0           1           0           0
           0 -2000000000           1           0           0           0
           0           0           4          52           0           0
           0           0           5           0           0           0
           0           0           0           0           0           1
           0           0           0           0           0           0
           0           0           0           0           0           0
           0           0           0           0           0           0
           0           0           0           0           0           0
           0           0           0           0
Num RLSW                                   I               52
RLSW                                       R   N=          52
  8.00000000E-01  7.20000000E-01  1.00000000E+00  8.10000000E-01  2.00000000E-01
  0.00000000E+00  0.00000000E+00  1.00000000E+00  0.00000000E+00  0.00000000E+00
  0.00000000E+00  0.00000000E+00  1.00000000E+00  0.00000000E+00  0.00000000E+00
  0.00000000E+00  0.00000000E+00  1.00000000E+00  0.00000000E+00  0.00000000E+00
  0.00000000E+00  0.00000000E+00  1.00000000E+00  0.00000000E+00  0.00000000E+00
  0.00000000E+00  0.00000000E+00  1.00000000E+00  0.00000000E+00  0.00000000E+00
  0.00000000E+00  0.00000000E+00  1.00000000E+00  0.00000000E+00  0.00000000E+00
  0.00000000E+00  0.00000000E+00  0.00000000E+00  1.00000000E+00  1.00000000E+00
  0.00000000E+00  1.00000000E+00  0.00000000E+00  0.00000000E+00  0.00000000E+00
  0.00000000E+00  0.00000000E+00  0.00000000E+00  0.00000000E+00  0.00000000E+00
  0.00000000E+00  0.00000000E+00
MxBond                                     I                3
NBond                                      I   N=           6
           3           3           1           1           1           1
IBond                                      I   N=          18
           2           3           4           1           5           6
           1           0           0           1           0           0
           2           0           0           2           0           0
RBond                                      R   N=          18
  2.00000000E+00  1.00000000E+00  1.00000000E+00  2.00000000E+00  1.00000000E+00
  1.00000000E+00  1.00000000E+00  0.00000000E+00  0.00000000E+00  1.00000000E+00
  0.00000000E+00  0.00000000E+00  1.00000000E+00  0.00000000E+00  0.00000000E+00
  1.00000000E+00  0.00000000E+00  0.00000000E+00
Virial Ratio                               R      2.010931110377502E+00
SCF Energy                                 R     -7.859964434438349E+01
Total Energy                               R     -7.859964434438349E+01
RMS Force                                  R      1.283411688406277E-04
RMS Density                                R      5.051798773879044E-09
Job Status                                 I                1
Nuclear derivative order                   I                1
External E-field                           R   N=          35
  0.00000000E+00  0.00000000E+00  0.00000000E+00  0.00000000E+00  0.00000000E+00
  0.00000000E+00  0.00000000E+00  0.00000000E+00  0.00000000E+00  0.00000000E+00
  0.00000000E+00  0.00000000E+00  0.00000000E+00  0.00000000E+00  0.00000000E+00
  0.00000000E+00  0.00000000E+00  0.00000000E+00  0.00000000E+00  0.00000000E+00
  0.00000000E+00  0.00000000E+00  0.00000000E+00  0.00000000E+00  0.00000000E+00
  0.00000000E+00  0.00000000E+00  0.00000000E+00  0.00000000E+00  0.00000000E+00
  0.00000000E+00  0.00000000E+00  0.00000000E+00  0.00000000E+00  0.00000000E+00
IOpCl                                      I                0
IROHF                                      I                0
Alpha Orbital Energies                     R   N=          58
 -1.01957793E+01 -1.01949059E+01 -7.65079467E-01 -5.85346730E-01 -4.72973725E-01
 -4.25079192E-01 -3.60823780E-01 -2.78221343E-01 -9.59319978E-03  2.46587607E-02
  3.24609753E-02  4.66865382E-02  6.92677689E-02  8.64906484E-02  8.71726913E-02
  1.28276148E-01  1.57332330E-01  1.80505675E-01  1.91910671E-01  2.48151951E-01
  3.45843327E-01  3.50491261E-01  5.68140691E-01  6.47577449E-01  6.73795266E-01
  7.20637038E-01  7.61142869E-01  8.18351885E-01  8.90622370E-01  9.18418104E-01
  9.53723660E-01  9.94971513E-01  1.16387893E+00  1.19042690E+00  1.37580795E+00
  1.37940846E+00  1.51898166E+00  1.84250558E+00  1.91228500E+00  1.98068308E+00
  2.03213092E+00  2.05652787E+00  2.13576666E+00  2.21932767E+00  2.36038176E+00
  2.43920701E+00  2.52123900E+00  2.60878598E+00  2.66903410E+00  2.71313826E+00
  2.75093478E+00  3.02194642E+00  3.18042745E+00  3.33518872E+00  3.47177008E+00
  3.76365119E+00  4.23019116E+00  4.51294439E+00
Alpha MO coefficients                      R   N=        3364
  7.01839131E-01  3.45274463E-02  3.94426522E-10  2.31680030E-04  0.00000000E+00
 -6.17904220E-03 -1.79189344E-09 -1.89699245E-04  0.00000000E+00  6.36204907E-04
 -8.50593204E-10 -7.85680312E-04  0.00000000E+00 -6.58804679E-03 -6.57931004E-03
 -6.90642280E-03  6.55350364E-10  0.00000000E+00  0.00000000E+00  7.01839131E-01
  3.45274463E-02 -3.94426522E-10 -2.31680030E-04  0.00000000E+00 -6.17904220E-03
  1.79189344E-09  1.89699245E-04  0.00000000E+00  6.36204907E-04  8.50593204E-10
  7.85680312E-04  0.00000000E+00 -6.58804679E-03 -6.57931004E-03 -6.90642280E-03
  6.55350364E-10  0.00000000E+00  0.00000000E+00 -2.51848095E-04  9.20351778E-04
 -1.51566722E-04  1.28562469E-05  0.00000000E+00 -2.51848875E-04  9.20355013E-04
  1.51566635E-04  1.28560923E-05  0.00000000E+00 -2.51848875E-04  9.20355013E-04
 -1.51566635E-04 -1.28560923E-05  0.00000000E+00 -2.51848095E-04  9.20351778E-04
  1.51566722E-04 -1.28562469E-05  0.00000000E+00  7.02170283E-01  3.51875669E-02
  3.68103113E-10 -2.66005379E-04  0.00000000E+00 -1.31075988E-02  4.84603341E-13
  2.61054994E-03  0.00000000E+00  2.09180407E-02  5.21224089E-11 -5.55802384E-03
  0.00000000E+00 -6.24818972E-03 -6.05583816E-03 -6.76474519E-03  4.60906424E-10
  0.00000000E+00  0.00000000E+00 -7.02170283E-01 -3.51875669E-02  3.68103113E-10
 -2.66005379E-04  0.00000000E+00  1.31075988E-02  4.84603341E-13  2.61054994E-03
  0.00000000E+00 -2.09180407E-02  5.21224089E-11 -5.55802384E-03  0.00000000E+00
  6.24818972E-03  6.05583816E-03  6.76474519E-03 -4.60906424E-10  0.00000000E+00
  0.00000000E+00 -1.97087028E-04  9.63205349E-04 -2.50773783E-04  8.66468553E-05
  0.00000000E+00 -1.97087996E-04  9.63206236E-04  2.50773691E-04  8.66467801E-05
  0.00000000E+00  1.97087996E-04 -9.63206236E-04  2.50773691E-04  8.66467801E-05
  0.00000000E+00  1.97087028E-04 -9.63205349E-04 -2.50773783E-04  8.66468553E-05
  0.00000000E+00 -1.60765772E-01  3.13108475E-01  2.70231086E-08 -1.06671170E-01
  0.00000000E+00  2.26178959E-01  1.55442865E-09 -7.86847750E-03  0.00000000E+00
  5.79883172E-04  9.67368472E-09 -2.66188203E-04  0.00000000E+00 -9.57364339E-03
  5.39522456E-03 -1.66885789E-02  2.30640158E-09  0.00000000E+00  0.00000000E+00
 -1.60765772E-01  3.13108475E-01 -2.70231086E-08  1.06671170E-01  0.00000000E+00
  2.26178959E-01 -1.55442865E-09  7.86847750E-03  0.00000000E+00  5.79883172E-04
 -9.67368472E-09  2.66188203E-04  0.00000000E+00 -9.57364339E-03  5.39522456E-03
 -1.66885789E-02  2.30640158E-09  0.00000000E+00  0.00000000E+00  8.63062160E-02
  2.13720158E-02  7.55535530E-03 -6.18870406E-03  0.00000000E+00  8.63062873E-02
  2.13720147E-02 -7.55535237E-03 -6.18871116E-03  0.00000000E+00  8.63062873E-02
  2.13720147E-02  7.55535237E-03  6.18871116E-03  0.00000000E+00  8.63062160E-02
  2.13720158E-02 -7.55535530E-03  6.18870406E-03  0.00000000E+00 -1.24096758E-01
  2.51517577E-01  2.01694298E-07  1.68619358E-01  0.00000000E+00  2.42301645E-01
  4.20029822E-08  5.38967081E-02  0.00000000E+00 -9.24748866E-02  5.66792974E-09
  3.09764180E-02  0.00000000E+00  4.13870483E-03 -1.35264230E-02 -1.11639421E-02
  1.09155358E-08  0.00000000E+00  0.00000000E+00  1.24096758E-01 -2.51517577E-01
  2.01694298E-07  1.68619358E-01  0.00000000E+00 -2.42301645E-01  4.20029822E-08
  5.38967081E-02  0.00000000E+00  9.24748866E-02  5.66792974E-09  3.09764180E-02
  0.00000000E+00 -4.13870483E-03  1.35264230E-02  1.11639421E-02 -1.09155358E-08
  0.00000000E+00  0.00000000E+00  1.48388893E-01  6.93663734E-02  9.86465488E-03
 -3.69435418E-03  0.00000000E+00  1.48389190E-01  6.93664981E-02 -9.86465964E-03
 -3.69436946E-03  0.00000000E+00 -1.48389190E-01 -6.93664981E-02 -9.86465964E-03
 -3.69436946E-03  0.00000000E+00 -1.48388893E-01 -6.93663734E-02  9.86465488E-03
 -3.69435418E-03  0.00000000E+00  6.66008812E-08 -1.37019646E-07  3.29454853E-01
 -5.74619323E-08  0.00000000E+00 -1.93859250E-07  1.18359199E-01 -4.38122008E-08
  0.00000000E+00  1.96491212E-07  1.23656306E-02 -6.14678247E-08  0.00000000E+00
 -1.35108530E-08  9.76673657E-09  4.00734685E-09  2.41100326E-03  0.00000000E+00
  0.00000000E+00 -6.66008812E-08  1.37019646E-07  3.29454853E-01 -5.74619323E-08
  0.00000000E+00  1.93859250E-07  1.18359199E-01 -4.38122008E-08  0.00000000E+00
 -1.96491212E-07  1.23656306E-02 -6.14678247E-08  0.00000000E+00  1.35108530E-08
 -9.76673657E-09 -4.00734685E-09 -2.41100326E-03  0.00000000E+00  0.00000000E+00
 -1.57262321E-01 -1.03596286E-01 -3.05009733E-03  5.96850571E-03  0.00000000E+00
  1.57262106E-01  1.03596122E-01 -3.05008115E-03 -5.96850631E-03  0.00000000E+00
 -1.57262106E-01 -1.03596122E-01 -3.05008115E-03 -5.96850631E-03  0.00000000E+00
  1.57262321E-01  1.03596286E-01 -3.05009733E-03  5.96850571E-03  0.00000000E+00
  1.28773328E-02 -3.07229047E-02  4.57056949E-07  4.14970609E-01  0.00000000E+00
  1.03268527E-03  8.23450734E-08  1.32441504E-01  0.00000000E+00  1.68978980E-02
 -1.92463633E-09  3.24024995E-02  0.00000000E+00  1.82467678E-02 -7.58081882E-03
  2.11920592E-04  5.12385639E-08  0.00000000E+00  0.00000000E+00  1.28773328E-02
 -3.07229047E-02 -4.57056949E-07 -4.14970609E-01  0.00000000E+00  1.03268527E-03
 -8.23450734E-08 -1.32441504E-01  0.00000000E+00  1.68978980E-02  1.92463633E-09
 -3.24024995E-02  0.00000000E+00  1.82467678E-02 -7.58081882E-03  2.11920592E-04
  5.12385639E-08  0.00000000E+00  0.00000000E+00  1.26479803E-01  1.00937162E-01
  5.23419824E-03  4.44934542E-03  0.00000000E+00  1.26480476E-01  1.00937743E-01
 -5.23421100E-03  4.44932789E-03  0.00000000E+00  1.26480476E-01  1.00937743E-01
  5.23421100E-03 -4.44932789E-03  0.00000000E+00  1.26479803E-01  1.00937162E-01
 -5.23419824E-03 -4.44934542E-03  0.00000000E+00 -3.37032645E-08  8.67931887E-08
  3.08902770E-01 -5.77809958E-07  0.00000000E+00 -2.87658672E-08  1.23810182E-01
 -2.40542242E-07  0.00000000E+00 -5.69831377E-08  3.81535327E-02 -6.85564235E-08
  0.00000000E+00 -4.17473267E-08  1.99171797E-08 -1.84134469E-09  2.74052380E-02
  0.00000000E+00  0.00000000E+00 -3.37032645E-08  8.67931887E-08 -3.08902770E-01
  5.77809958E-07  0.00000000E+00 -2.87658672E-08 -1.23810182E-01  2.40542242E-07
  0.00000000E+00 -5.69831377E-08 -3.81535327E-02  6.85564235E-08  0.00000000E+00
 -4.17473267E-08  1.99171797E-08 -1.84134469E-09  2.74052380E-02  0.00000000E+00
  0.00000000E+00 -1.98552444E-01 -1.83188641E-01 -2.68783786E-03  4.06439272E-03
  0.00000000E+00  1.98552010E-01  1.83188213E-01 -2.68781129E-03 -4.06441318E-03
  0.00000000E+00  1.98552010E-01  1.83188213E-01  2.68781129E-03  4.06441318E-03
  0.00000000E+00 -1.98552444E-01 -1.83188641E-01  2.68783786E-03 -4.06439272E-03
  0.00000000E+00  0.00000000E+00  0.00000000E+00  0.00000000E+00  0.00000000E+00
  4.01515803E-01  0.00000000E+00  0.00000000E+00  0.00000000E+00  2.49307284E-01
  0.00000000E+00  0.00000000E+00  0.00000000E+00  5.50343191E-02  0.00000000E+00
  0.00000000E+00  0.00000000E+00  0.00000000E+00  2.75330653E-09 -1.78916217E-02
  0.00000000E+00  0.00000000E+00  0.00000000E+00  0.00000000E+00  4.01515803E-01
  0.00000000E+00  0.00000000E+00  0.00000000E+00  2.49307284E-01  0.00000000E+00
  0.00000000E+00  0.00000000E+00  5.50343191E-02  0.00000000E+00  0.00000000E+00
  0.00000000E+00  0.00000000E+00 -2.75330653E-09  1.78916217E-02  0.00000000E+00
  0.00000000E+00  0.00000000E+00  0.00000000E+00  1.02066643E-02  0.00000000E+00
  0.00000000E+00  0.00000000E+00  0.00000000E+00  1.02066702E-02  0.00000000E+00
  0.00000000E+00  0.00000000E+00  0.00000000E+00  1.02066702E-02  0.00000000E+00
  0.00000000E+00  0.00000000E+00  0.00000000E+00  1.02066643E-02  0.00000000E+00
  0.00000000E+00  0.00000000E+00  0.00000000E+00  3.72943723E-01  0.00000000E+00
  0.00000000E+00  0.00000000E+00  4.35247657E-01  0.00000000E+00  0.00000000E+00
  0.00000000E+00  7.66172059E-01  0.00000000E+00  0.00000000E+00  0.00000000E+00
  0.00000000E+00  3.14897987E-09  2.24559465E-02  0.00000000E+00  0.00000000E+00
  0.00000000E+00  0.00000000E+00 -3.72943723E-01  0.00000000E+00  0.00000000E+00
  0.00000000E+00 -4.35247657E-01  0.00000000E+00  0.00000000E+00  0.00000000E+00
 -7.66172059E-01  0.00000000E+00  0.00000000E+00  0.00000000E+00  0.00000000E+00
  3.14897987E-09  2.24559465E-02  0.00000000E+00  0.00000000E+00  0.00000000E+00
  0.00000000E+00  1.61531557E-02  0.00000000E+00  0.00000000E+00  0.00000000E+00
  0.00000000E+00  1.61531676E-02  0.00000000E+00  0.00000000E+00  0.00000000E+00
  0.00000000E+00 -1.61531676E-02  0.00000000E+00  0.00000000E+00  0.00000000E+00
  0.00000000E+00 -1.61531557E-02  5.06191273E-02 -8.60911776E-02  8.35868448E-08
 -1.15767125E-01  0.00000000E+00 -4.94329471E-01  2.69772606E-07 -1.43618820E-01
  0.00000000E+00  8.27543253E-01  2.92634807E-07  4.29612880E-01  0.00000000E+00
  7.06144738E-03  2.98250008E-03  1.43117807E-02  4.12350074E-09  0.00000000E+00
  0.00000000E+00  5.06191273E-02 -8.60911776E-02 -8.35868448E-08  1.15767125E-01
  0.00000000E+00 -4.94329471E-01 -2.69772606E-07  1.43618820E-01  0.00000000E+00
  8.27543253E-01 -2.92634807E-07 -4.29612880E-01  0.00000000E+00  7.06144738E-03
  2.98250008E-03  1.43117807E-02  4.12350074E-09  0.00000000E+00  0.00000000E+00
 -7.27526769E-03 -2.75502195E-02 -9.02265532E-03  3.14942418E-03  0.00000000E+00
 -7.27528299E-03 -2.75504811E-02  9.02266220E-03  3.14943607E-03  0.00000000E+00
 -7.27528299E-03 -2.75504811E-02 -9.02266220E-03 -3.14943607E-03  0.00000000E+00
 -7.27526769E-03 -2.75502195E-02  9.02265532E-03 -3.14942418E-03  0.00000000E+00
 -5.01875598E-02  1.11960151E-01 -7.58603291E-08  4.79046670E-02  0.00000000E+00
  3.52226489E-01 -1.48650020E-07  7.68639594E-02  0.00000000E+00  9.82969358E+00
  1.03178912E-07 -3.32645465E+00  0.00000000E+00  2.13117810E-03 -1.36574181E-02
 -2.36745887E-03  7.07349822E-09  0.00000000E+00  0.00000000E+00  5.01875598E-02
 -1.11960151E-01 -7.58603291E-08  4.79046670E-02  0.00000000E+00 -3.52226489E-01
 -1.48650020E-07  7.68639594E-02  0.00000000E+00 -9.82969358E+00  1.03178912E-07
 -3.32645465E+00  0.00000000E+00 -2.13117810E-03  1.36574181E-02  2.36745887E-03
 -7.07349822E-09  0.00000000E+00  0.00000000E+00  4.78018173E-04 -7.07757906E-02
  4.25503407E-03 -7.68921672E-03  0.00000000E+00  4.78059007E-04 -7.07756140E-02
 -4.25503255E-03 -7.68921890E-03  0.00000000E+00 -4.78059007E-04  7.07756140E-02
 -4.25503255E-03 -7.68921890E-03  0.00000000E+00 -4.78018173E-04  7.07757906E-02
  4.25503407E-03 -7.68921672E-03  0.00000000E+00 -1.11782274E-08  1.37636529E-08
 -1.77665551E-01  1.73594441E-08  0.00000000E+00  3.87607353E-08 -2.58525906E-01
  9.23752756E-08  0.00000000E+00 -6.70645908E-06  5.74050381E-01  2.00069895E-06
  0.00000000E+00 -2.81356587E-09  6.90056933E-11  1.33525444E-09  8.31773462E-03
  0.00000000E+00  0.00000000E+00  1.11782274E-08 -1.37636529E-08 -1.77665551E-01
  1.73594441E-08  0.00000000E+00 -3.87607353E-08 -2.58525906E-01  9.23752756E-08
  0.00000000E+00  6.70645908E-06  5.74050381E-01  2.00069895E-06  0.00000000E+00
  2.81356587E-09 -6.90056933E-11 -1.33525444E-09 -8.31773462E-03  0.00000000E+00
  0.00000000E+00 -1.02443293E-02 -6.08183399E-02  7.08773498E-03 -4.20913508E-03
  0.00000000E+00  1.02442385E-02  6.08182436E-02  7.08773108E-03  4.20914217E-03
  0.00000000E+00 -1.02442385E-02 -6.08182436E-02  7.08773108E-03  4.20914217E-03
  0.00000000E+00  1.02443293E-02  6.08183399E-02  7.08773498E-03 -4.20913508E-03
  0.00000000E+00  0.00000000E+00  0.00000000E+00  0.00000000E+00  0.00000000E+00
 -1.57970259E-01  0.00000000E+00  0.00000000E+00  0.00000000E+00 -2.35744638E-01
  0.00000000E+00  0.00000000E+00  0.00000000E+00  6.02425611E-01  0.00000000E+00
  0.00000000E+00  0.00000000E+00  0.00000000E+00 -2.56711336E-09  1.13026148E-02
  0.00000000E+00  0.00000000E+00  0.00000000E+00  0.00000000E+00 -1.57970259E-01
  0.00000000E+00  0.00000000E+00  0.00000000E+00 -2.35744638E-01  0.00000000E+00
  0.00000000E+00  0.00000000E+00  6.02425611E-01  0.00000000E+00  0.00000000E+00
  0.00000000E+00  0.00000000E+00  2.56711336E-09 -1.13026148E-02  0.00000000E+00
  0.00000000E+00  0.00000000E+00  0.00000000E+00  2.29938502E-03  0.00000000E+00
  0.00000000E+00  0.00000000E+00  0.00000000E+00  2.29938144E-03  0.00000000E+00
  0.00000000E+00  0.00000000E+00  0.00000000E+00  2.29938144E-03  0.00000000E+00
  0.00000000E+00  0.00000000E+00  0.00000000E+00  2.29938502E-03 -3.58827698E-02
  4.21754687E-02 -2.28948469E-07 -4.69548782E-02  0.00000000E+00  5.16182675E-01
 -2.50593649E-07  4.12646985E-02  0.00000000E+00 -1.40747824E-02  1.60631159E-06
  1.46143785E+00  0.00000000E+00 -2.08136081E-02  9.74580332E-03 -1.65976273E-02
 -1.06407885E-08  0.00000000E+00  0.00000000E+00 -3.58827698E-02  4.21754687E-02
  2.28948469E-07  4.69548782E-02  0.00000000E+00  5.16182675E-01  2.50593649E-07
 -4.12646985E-02  0.00000000E+00 -1.40747824E-02 -1.60631159E-06 -1.46143785E+00
  0.00000000E+00 -2.08136081E-02  9.74580332E-03 -1.65976273E-02 -1.06407885E-08