 Entering Gaussian System, Link 0=g16
 Input=etano.com
 Output=etano.log
 Initial command:
 /opt/g16/l1.exe "/home/montoya/Montoya/Orbitales/etano/Gau-13810.inp" -scrdir="/home/montoya/Montoya/Orbitales/etano/"
 Entering Link 1 = /opt/g16/l1.exe PID=     13812.
  
 Copyright (c) 1988-2017, Gaussian, Inc.  All Rights Reserved.
  
 This is part of the Gaussian(R) 16 program.  It is based on
 the Gaussian(R) 09 system (copyright 2009, Gaussian, Inc.),
 the Gaussian(R) 03 system (copyright 2003, Gaussian, Inc.),
 the Gaussian(R) 98 system (copyright 1998, Gaussian, Inc.),
 the Gaussian(R) 94 system (copyright 1995, Gaussian, Inc.),
 the Gaussian 92(TM) system (copyright 1992, Gaussian, Inc.),
 the Gaussian 90(TM) system (copyright 1990, Gaussian, Inc.),
 the Gaussian 88(TM) system (copyright 1988, Gaussian, Inc.),
 the Gaussian 86(TM) system (copyright 1986, Carnegie Mellon
 University), and the Gaussian 82(TM) system (copyright 1983,
 Carnegie Mellon University). Gaussian is a federally registered
 trademark of Gaussian, Inc.
  
 This software contains proprietary and confidential information,
 including trade secrets, belonging to Gaussian, Inc.
  
 This software is provided under written license and may be
 used, copied, transmitted, or stored only in accord with that
 written license.
  
 The following legend is applicable only to US Government
 contracts under FAR:
  
                    RESTRICTED RIGHTS LEGEND
  
 Use, reproduction and disclosure by the US Government is
 subject to restrictions as set forth in subparagraphs (a)
 and (c) of the Commercial Computer Software - Restricted
 Rights clause in FAR 52.227-19.
  
 Gaussian, Inc.
 340 Quinnipiac St., Bldg. 40, Wallingford CT 06492
  
  
 ---------------------------------------------------------------
 Warning -- This program may not be used in any manner that
 competes with the business of Gaussian, Inc. or will provide
 assistance to any competitor of Gaussian, Inc.  The licensee
 of this program is prohibited from giving any competitor of
 Gaussian, Inc. access to this program.  By using this program,
 the user acknowledges that Gaussian, Inc. is engaged in the
 business of creating and licensing software in the field of
 computational chemistry and represents and warrants to the
 licensee that it is not a competitor of Gaussian, Inc. and that
 it will not use this program in any manner prohibited above.
 ---------------------------------------------------------------
  

 Cite this work as:
 Gaussian 16, Revision B.01,
 M. J. Frisch, G. W. Trucks, H. B. Schlegel, G. E. Scuseria, 
 M. A. Robb, J. R. Cheeseman, G. Scalmani, V. Barone, 
 G. A. Petersson, H. Nakatsuji, X. Li, M. Caricato, A. V. Marenich, 
 J. Bloino, B. G. Janesko, R. Gomperts, B. Mennucci, H. P. Hratchian, 
 J. V. Ortiz, A. F. Izmaylov, J. L. Sonnenberg, D. Williams-Young, 
 F. Ding, F. Lipparini, F. Egidi, J. Goings, B. Peng, A. Petrone, 
 T. Henderson, D. Ranasinghe, V. G. Zakrzewski, J. Gao, N. Rega, 
 G. Zheng, W. Liang, M. Hada, M. Ehara, K. Toyota, R. Fukuda, 
 J. Hasegawa, M. Ishida, T. Nakajima, Y. Honda, O. Kitao, H. Nakai, 
 T. Vreven, K. Throssell, J. A. Montgomery, Jr., J. E. Peralta, 
 F. Ogliaro, M. J. Bearpark, J. J. Heyd, E. N. Brothers, K. N. Kudin, 
 V. N. Staroverov, T. A. Keith, R. Kobayashi, J. Normand, 
 K. Raghavachari, A. P. Rendell, J. C. Burant, S. S. Iyengar, 
 J. Tomasi, M. Cossi, J. M. Millam, M. Klene, C. Adamo, R. Cammi, 
 J. W. Ochterski, R. L. Martin, K. Morokuma, O. Farkas, 
 J. B. Foresman, and D. J. Fox, Gaussian, Inc., Wallingford CT, 2016.
 
 ******************************************
 Gaussian 16:  EM64L-G16RevB.01 20-Dec-2017
                18-Feb-2019 
 ******************************************
 %Chk=etano.chk
 --------------------------------
 #n B3LYP/6-31+G(d,p) Opt Pop=NPA
 --------------------------------
 1/18=20,19=15,26=3,38=1/1,3;
 2/9=110,12=2,17=6,18=5,40=1/2;
 3/5=1,6=6,7=111,11=2,25=1,30=1,71=1,74=-5/1,2,3;
 4//1;
 5/5=2,38=5/2;
 6/7=2,8=2,9=2,10=2,28=1,40=-1/1,7;
 7//1,2,3,16;
 1/18=20,19=15,26=3/3(2);
 2/9=110/2;
 99//99;
 2/9=110/2;
 3/5=1,6=6,7=111,11=2,25=1,30=1,71=1,74=-5/1,2,3;
 4/5=5,16=3,69=1/1;
 5/5=2,38=5/2;
 7//1,2,3,16;
 1/18=20,19=15,26=3/3(-5);
 2/9=110/2;
 6/7=2,8=2,9=2,10=2,19=2,28=1,40=-1/1,7;
 99/9=1/99;
 -----
 etano
 -----
 Symbolic Z-matrix:
 Charge =  0 Multiplicity = 1
 C                    -3.176     2.90647   0. 
 C                    -1.65688   2.91982   0. 
 H                    -3.54539   2.08159  -0.64505 
 H                    -3.56113   3.87255  -0.38901 
 H                    -3.55131   2.75534   1.03405 
 H                    -1.28157   3.07095  -1.03405 
 H                    -1.27175   1.95374   0.38901 
 H                    -1.28749   3.7447    0.64505 
 

 GradGradGradGradGradGradGradGradGradGradGradGradGradGradGradGradGradGrad
 Berny optimization.
 Initialization pass.
                           ----------------------------
                           !    Initial Parameters    !
                           ! (Angstroms and Degrees)  !
 --------------------------                            --------------------------
 ! Name  Definition              Value          Derivative Info.                !
 --------------------------------------------------------------------------------
 ! R1    R(1,2)                  1.5192         estimate D2E/DX2                !
 ! R2    R(1,3)                  1.1104         estimate D2E/DX2                !
 ! R3    R(1,4)                  1.1104         estimate D2E/DX2                !
 ! R4    R(1,5)                  1.1104         estimate D2E/DX2                !
 ! R5    R(2,6)                  1.1104         estimate D2E/DX2                !
 ! R6    R(2,7)                  1.1104         estimate D2E/DX2                !
 ! R7    R(2,8)                  1.1104         estimate D2E/DX2                !
 ! A1    A(2,1,3)              109.8271         estimate D2E/DX2                !
 ! A2    A(2,1,4)              109.8271         estimate D2E/DX2                !
 ! A3    A(2,1,5)              109.8271         estimate D2E/DX2                !
 ! A4    A(3,1,4)              109.1127         estimate D2E/DX2                !
 ! A5    A(3,1,5)              109.1131         estimate D2E/DX2                !
 ! A6    A(4,1,5)              109.1133         estimate D2E/DX2                !
 ! A7    A(1,2,6)              109.8271         estimate D2E/DX2                !
 ! A8    A(1,2,7)              109.8271         estimate D2E/DX2                !
 ! A9    A(1,2,8)              109.8271         estimate D2E/DX2                !
 ! A10   A(6,2,7)              109.1133         estimate D2E/DX2                !
 ! A11   A(6,2,8)              109.1131         estimate D2E/DX2                !
 ! A12   A(7,2,8)              109.1127         estimate D2E/DX2                !
 ! D1    D(3,1,2,6)             59.9999         estimate D2E/DX2                !
 ! D2    D(3,1,2,7)            -60.0004         estimate D2E/DX2                !
 ! D3    D(3,1,2,8)            180.0            estimate D2E/DX2                !
 ! D4    D(4,1,2,6)            -59.9997         estimate D2E/DX2                !
 ! D5    D(4,1,2,7)            180.0            estimate D2E/DX2                !
 ! D6    D(4,1,2,8)             60.0004         estimate D2E/DX2                !
 ! D7    D(5,1,2,6)            180.0            estimate D2E/DX2                !
 ! D8    D(5,1,2,7)             59.9997         estimate D2E/DX2                !
 ! D9    D(5,1,2,8)            -59.9999         estimate D2E/DX2                !
 --------------------------------------------------------------------------------
 Trust Radius=3.00D-01 FncErr=1.00D-07 GrdErr=1.00D-06 EigMax=2.50D+02 EigMin=1.00D-04
 Number of steps in this run=     38 maximum allowed number of steps=    100.
 GradGradGradGradGradGradGradGradGradGradGradGradGradGradGradGradGradGrad

                          Input orientation:                          
 ---------------------------------------------------------------------
 Center     Atomic      Atomic             Coordinates (Angstroms)
 Number     Number       Type             X           Y           Z
 ---------------------------------------------------------------------
      1          6           0       -3.176000    2.906470    0.000000
      2          6           0       -1.656880    2.919820    0.000000
      3          1           0       -3.545390    2.081590   -0.645050
      4          1           0       -3.561130    3.872550   -0.389010
      5          1           0       -3.551310    2.755340    1.034050
      6          1           0       -1.281570    3.070950   -1.034050
      7          1           0       -1.271750    1.953740    0.389010
      8          1           0       -1.287490    3.744700    0.645050
 ---------------------------------------------------------------------
                    Distance matrix (angstroms):
                    1          2          3          4          5
     1  C    0.000000
     2  C    1.519179   0.000000
     3  H    1.110390   2.164530   0.000000
     4  H    1.110389   2.164530   1.809238   0.000000
     5  H    1.110386   2.164527   1.809240   1.809241   0.000000
     6  H    2.164527   1.110386   2.501007   2.501006   3.086805
     7  H    2.164530   1.110389   2.501013   3.086812   2.501006
     8  H    2.164530   1.110390   3.086812   2.501013   2.501007
                    6          7          8
     6  H    0.000000
     7  H    1.809241   0.000000
     8  H    1.809240   1.809238   0.000000
 This structure is nearly, but not quite of a higher symmetry.
 Consider Symm=Loose if the higher symmetry is desired.
 Stoichiometry    C2H6
 Framework group  CI[X(C2H6)]
 Deg. of freedom     9
 Full point group                 CI      NOp   2
 Largest Abelian subgroup         CI      NOp   2
 Largest concise Abelian subgroup CI      NOp   2
                         Standard orientation:                         
 ---------------------------------------------------------------------
 Center     Atomic      Atomic             Coordinates (Angstroms)
 Number     Number       Type             X           Y           Z
 ---------------------------------------------------------------------
      1          6           0       -0.759560   -0.006675    0.000000
      2          6           0        0.759560    0.006675   -0.000000
      3          1           0       -1.128950   -0.831555   -0.645050
      4          1           0       -1.144690    0.959405   -0.389010
      5          1           0       -1.134870   -0.157805    1.034050
      6          1           0        1.134870    0.157805   -1.034050
      7          1           0        1.144690   -0.959405    0.389010
      8          1           0        1.128950    0.831555    0.645050
 ---------------------------------------------------------------------
 Rotational constants (GHZ):          76.5966433          20.2533321          20.2533200
 Standard basis: 6-31+G(d,p) (6D, 7F)
 There are    34 symmetry adapted cartesian basis functions of AG  symmetry.
 There are    34 symmetry adapted cartesian basis functions of AU  symmetry.
 There are    34 symmetry adapted basis functions of AG  symmetry.
 There are    34 symmetry adapted basis functions of AU  symmetry.
    68 basis functions,   106 primitive gaussians,    68 cartesian basis functions
     9 alpha electrons        9 beta electrons
       nuclear repulsion energy        42.0363112010 Hartrees.
 NAtoms=    8 NActive=    8 NUniq=    4 SFac= 4.00D+00 NAtFMM=   60 NAOKFM=F Big=F
 Integral buffers will be    131072 words long.
 Raffenetti 2 integral format.
 Two-electron integral symmetry is turned on.
 One-electron integrals computed using PRISM.
 NBasis=    68 RedAO= T EigKep=  3.30D-04  NBF=    34    34
 NBsUse=    68 1.00D-06 EigRej= -1.00D+00 NBFU=    34    34
 ExpMin= 4.38D-02 ExpMax= 3.05D+03 ExpMxC= 4.57D+02 IAcc=3 IRadAn=         5 AccDes= 0.00D+00
 Harris functional with IExCor=  402 and IRadAn=       5 diagonalized for initial guess.
 HarFok:  IExCor=  402 AccDes= 0.00D+00 IRadAn=         5 IDoV= 1 UseB2=F ITyADJ=14
 ICtDFT=  3500011 ScaDFX=  1.000000  1.000000  1.000000  1.000000
 FoFCou: FMM=F IPFlag=           0 FMFlag=      100000 FMFlg1=           0
         NFxFlg=           0 DoJE=T BraDBF=F KetDBF=T FulRan=T
         wScrn=  0.000000 ICntrl=       500 IOpCl=  0 I1Cent=   200000004 NGrid=           0
         NMat0=    1 NMatS0=      1 NMatT0=    0 NMatD0=    1 NMtDS0=    0 NMtDT0=    0
 Petite list used in FoFCou.
 Initial guess orbital symmetries:
       Occupied  (AG) (AU) (AG) (AU) (AU) (AU) (AG) (AG) (AG)
       Virtual   (AG) (AU) (AU) (AU) (AG) (AG) (AG) (AU) (AG) (AG)
                 (AU) (AU) (AU) (AG) (AU) (AG) (AU) (AU) (AG) (AG)
                 (AU) (AU) (AU) (AG) (AG) (AG) (AU) (AG) (AU) (AU)
                 (AU) (AG) (AG) (AG) (AU) (AG) (AG) (AG) (AU) (AU)
                 (AU) (AU) (AU) (AG) (AG) (AG) (AU) (AU) (AU) (AG)
                 (AG) (AG) (AU) (AG) (AG) (AU) (AU) (AG) (AU)
 The electronic state of the initial guess is 1-AG.
 Keep R1 ints in memory in symmetry-blocked form, NReq=4136385.
 Requested convergence on RMS density matrix=1.00D-08 within 128 cycles.
 Requested convergence on MAX density matrix=1.00D-06.
 Requested convergence on             energy=1.00D-06.
 No special actions if energy rises.
 SCF Done:  E(RB3LYP) =  -79.8399627811     A.U. after    7 cycles
            NFock=  7  Conv=0.60D-08     -V/T= 2.0120

 **********************************************************************

            Population analysis using the SCF Density.

 **********************************************************************

 Orbital symmetries:
       Occupied  (AG) (AU) (AG) (AU) (AU) (AU) (AG) (AG) (AG)
       Virtual   (AG) (AU) (AU) (AU) (AG) (AG) (AG) (AU) (AG) (AG)
                 (AU) (AU) (AU) (AG) (AU) (AG) (AU) (AU) (AG) (AG)
                 (AU) (AU) (AU) (AG) (AG) (AG) (AU) (AG) (AU) (AU)
                 (AU) (AG) (AG) (AG) (AU) (AG) (AG) (AG) (AU) (AU)
                 (AU) (AU) (AU) (AG) (AG) (AG) (AU) (AU) (AU) (AG)
                 (AG) (AG) (AU) (AG) (AG) (AU) (AU) (AG) (AU)
 The electronic state is 1-AG.
 Alpha  occ. eigenvalues --  -10.18153 -10.18130  -0.75467  -0.60780  -0.43725
 Alpha  occ. eigenvalues --   -0.43725  -0.36335  -0.34234  -0.34234
 Alpha virt. eigenvalues --    0.01671   0.03155   0.05194   0.05194   0.07860
 Alpha virt. eigenvalues --    0.08962   0.08962   0.14135   0.18779   0.18780
 Alpha virt. eigenvalues --    0.19673   0.19673   0.25562   0.29023   0.32395
 Alpha virt. eigenvalues --    0.61333   0.64896   0.64896   0.66462   0.66462
 Alpha virt. eigenvalues --    0.70146   0.90986   0.90987   0.96896   0.96896
 Alpha virt. eigenvalues --    0.99358   1.08307   1.10121   1.32248   1.32248
 Alpha virt. eigenvalues --    1.46410   1.69474   1.69474   1.91399   2.03921
 Alpha virt. eigenvalues --    2.03987   2.06743   2.06743   2.06993   2.06993
 Alpha virt. eigenvalues --    2.27852   2.27852   2.37561   2.47788   2.47789
 Alpha virt. eigenvalues --    2.65121   2.72274   2.77346   2.77346   2.88515
 Alpha virt. eigenvalues --    2.88515   3.17679   3.23626   3.34215   3.34215
 Alpha virt. eigenvalues --    3.49501   3.49501   4.33011   4.58174
          Condensed to atoms (all electrons):
               1          2          3          4          5          6
     1  C    5.104035   0.257418   0.403456   0.403456   0.403456  -0.047383
     2  C    0.257418   5.104035  -0.047384  -0.047384  -0.047383   0.403456
     3  H    0.403456  -0.047384   0.561015  -0.027905  -0.027904  -0.004672
     4  H    0.403456  -0.047384  -0.027905   0.561015  -0.027904  -0.004672
     5  H    0.403456  -0.047383  -0.027904  -0.027904   0.561013   0.004842
     6  H   -0.047383   0.403456  -0.004672  -0.004672   0.004842   0.561013
     7  H   -0.047384   0.403456  -0.004672   0.004842  -0.004672  -0.027904
     8  H   -0.047384   0.403456   0.004842  -0.004672  -0.004672  -0.027904
               7          8
     1  C   -0.047384  -0.047384
     2  C    0.403456   0.403456
     3  H   -0.004672   0.004842
     4  H    0.004842  -0.004672
     5  H   -0.004672  -0.004672
     6  H   -0.027904  -0.027904
     7  H    0.561015  -0.027905
     8  H   -0.027905   0.561015
 Mulliken charges:
               1
     1  C   -0.429670
     2  C   -0.429670
     3  H    0.143223
     4  H    0.143223
     5  H    0.143224
     6  H    0.143224
     7  H    0.143223
     8  H    0.143223
 Sum of Mulliken charges =   0.00000
 Mulliken charges with hydrogens summed into heavy atoms:
               1
     1  C    0.000000
     2  C    0.000000
 Electronic spatial extent (au):  <R**2>=            110.1952
 Charge=              0.0000 electrons
 Dipole moment (field-independent basis, Debye):
    X=              0.0000    Y=              0.0000    Z=             -0.0000  Tot=              0.0000
 Quadrupole moment (field-independent basis, Debye-Ang):
   XX=            -16.2365   YY=            -15.0369   ZZ=            -15.0368
   XY=             -0.0105   XZ=              0.0000   YZ=             -0.0000
 Traceless Quadrupole moment (field-independent basis, Debye-Ang):
   XX=             -0.7998   YY=              0.3998   ZZ=              0.4000
   XY=             -0.0105   XZ=              0.0000   YZ=             -0.0000
 Octapole moment (field-independent basis, Debye-Ang**2):
  XXX=              0.0000  YYY=             -0.0000  ZZZ=              0.0000  XYY=              0.0000
  XXY=              0.0000  XXZ=             -0.0000  XZZ=             -0.0000  YZZ=              0.0000
  YYZ=              0.0000  XYZ=             -0.0000
 Hexadecapole moment (field-independent basis, Debye-Ang**3):
 XXXX=            -98.7870 YYYY=            -32.0942 ZZZZ=            -32.0698 XXXY=             -0.3220
 XXXZ=              0.0002 YYYX=             -0.8238 YYYZ=              0.0325 ZZZX=             -1.2332
 ZZZY=             -0.0108 XXYY=            -20.7137 XXZZ=            -20.7321 YYZZ=            -10.6809
 XXYZ=             -0.0217 YYXZ=              1.2328 ZZXY=              0.4713
 N-N= 4.203631120098D+01 E-N=-2.677471033892D+02  KE= 7.888939735709D+01
 Symmetry AG   KE= 4.096204597977D+01
 Symmetry AU   KE= 3.792735137732D+01
 ******************************Gaussian NBO Version 3.1******************************
             N A T U R A L   A T O M I C   O R B I T A L   A N D
          N A T U R A L   B O N D   O R B I T A L   A N A L Y S I S
 ******************************Gaussian NBO Version 3.1******************************
       /RESON  / : Allow strongly delocalized NBO set

 Analyzing the SCF density

 Job title: etano                                                           

 Storage needed:     14264 in NPA ( 104857200 available)
 GSVD:  LWork=        1432 too small for GESVD, short by        4610 words or        4610 for optimal perf.


 NATURAL POPULATIONS:  Natural atomic orbital occupancies 
                                                          
   NAO  Atom  No  lang   Type(AO)    Occupancy      Energy
 ----------------------------------------------------------
     1    C    1  S      Cor( 1S)     1.99956     -10.05313
     2    C    1  S      Val( 2S)     1.12002      -0.27968
     3    C    1  S      Ryd( 3S)     0.00039       0.83277
     4    C    1  S      Ryd( 4S)     0.00034       0.91855
     5    C    1  S      Ryd( 5S)     0.00000       4.18939
     6    C    1  px     Val( 2p)     1.08749      -0.07474
     7    C    1  px     Ryd( 4p)     0.00078       0.56361
     8    C    1  px     Ryd( 3p)     0.00007       0.18377
     9    C    1  py     Val( 2p)     1.24637      -0.08649
    10    C    1  py     Ryd( 4p)     0.00091       0.63494
    11    C    1  py     Ryd( 3p)     0.00000       0.26379
    12    C    1  pz     Val( 2p)     1.24638      -0.08649
    13    C    1  pz     Ryd( 4p)     0.00091       0.63495
    14    C    1  pz     Ryd( 3p)     0.00000       0.26380
    15    C    1  dxy    Ryd( 3d)     0.00051       2.16626
    16    C    1  dxz    Ryd( 3d)     0.00050       2.16272
    17    C    1  dyz    Ryd( 3d)     0.00061       2.35943
    18    C    1  dx2y2  Ryd( 3d)     0.00070       2.37028
    19    C    1  dz2    Ryd( 3d)     0.00064       2.36250

    20    C    2  S      Cor( 1S)     1.99956     -10.05313
    21    C    2  S      Val( 2S)     1.12002      -0.27968
    22    C    2  S      Ryd( 3S)     0.00039       0.83277
    23    C    2  S      Ryd( 4S)     0.00034       0.91855
    24    C    2  S      Ryd( 5S)     0.00000       4.18939
    25    C    2  px     Val( 2p)     1.08749      -0.07474
    26    C    2  px     Ryd( 4p)     0.00078       0.56361
    27    C    2  px     Ryd( 3p)     0.00007       0.18377
    28    C    2  py     Val( 2p)     1.24637      -0.08649
    29    C    2  py     Ryd( 4p)     0.00091       0.63494
    30    C    2  py     Ryd( 3p)     0.00000       0.26379
    31    C    2  pz     Val( 2p)     1.24638      -0.08649
    32    C    2  pz     Ryd( 4p)     0.00091       0.63495
    33    C    2  pz     Ryd( 3p)     0.00000       0.26380
    34    C    2  dxy    Ryd( 3d)     0.00051       2.16626
    35    C    2  dxz    Ryd( 3d)     0.00050       2.16272
    36    C    2  dyz    Ryd( 3d)     0.00061       2.35943
    37    C    2  dx2y2  Ryd( 3d)     0.00070       2.37028
    38    C    2  dz2    Ryd( 3d)     0.00064       2.36250

    39    H    3  S      Val( 1S)     0.76343       0.06893
    40    H    3  S      Ryd( 2S)     0.00060       0.68644
    41    H    3  px     Ryd( 2p)     0.00012       2.36530
    42    H    3  py     Ryd( 2p)     0.00027       2.68939
    43    H    3  pz     Ryd( 2p)     0.00019       2.54203

    44    H    4  S      Val( 1S)     0.76343       0.06894
    45    H    4  S      Ryd( 2S)     0.00060       0.68643
    46    H    4  px     Ryd( 2p)     0.00012       2.37220
    47    H    4  py     Ryd( 2p)     0.00034       2.82996
    48    H    4  pz     Ryd( 2p)     0.00012       2.39456

    49    H    5  S      Val( 1S)     0.76343       0.06894
    50    H    5  S      Ryd( 2S)     0.00060       0.68643
    51    H    5  px     Ryd( 2p)     0.00012       2.36786
    52    H    5  py     Ryd( 2p)     0.00008       2.32302
    53    H    5  pz     Ryd( 2p)     0.00038       2.90585

    54    H    6  S      Val( 1S)     0.76343       0.06894
    55    H    6  S      Ryd( 2S)     0.00060       0.68643
    56    H    6  px     Ryd( 2p)     0.00012       2.36786
    57    H    6  py     Ryd( 2p)     0.00008       2.32302
    58    H    6  pz     Ryd( 2p)     0.00038       2.90585

    59    H    7  S      Val( 1S)     0.76343       0.06894
    60    H    7  S      Ryd( 2S)     0.00060       0.68643
    61    H    7  px     Ryd( 2p)     0.00012       2.37220
    62    H    7  py     Ryd( 2p)     0.00034       2.82996
    63    H    7  pz     Ryd( 2p)     0.00012       2.39456

    64    H    8  S      Val( 1S)     0.76343       0.06893
    65    H    8  S      Ryd( 2S)     0.00060       0.68644
    66    H    8  px     Ryd( 2p)     0.00012       2.36530
    67    H    8  py     Ryd( 2p)     0.00027       2.68939
    68    H    8  pz     Ryd( 2p)     0.00019       2.54203

 WARNING:  Population inversion found on atom  C    1
           Population inversion found on atom  C    2


 Summary of Natural Population Analysis:                  
                                                          
                                       Natural Population 
                Natural  -----------------------------------------------
    Atom  No    Charge         Core      Valence    Rydberg      Total
 -----------------------------------------------------------------------
      C    1   -0.70618      1.99956     4.70025    0.00638     6.70618
      C    2   -0.70618      1.99956     4.70025    0.00638     6.70618
      H    3    0.23539      0.00000     0.76343    0.00118     0.76461
      H    4    0.23539      0.00000     0.76343    0.00118     0.76461
      H    5    0.23540      0.00000     0.76343    0.00118     0.76460
      H    6    0.23540      0.00000     0.76343    0.00118     0.76460
      H    7    0.23539      0.00000     0.76343    0.00118     0.76461
      H    8    0.23539      0.00000     0.76343    0.00118     0.76461
 =======================================================================
   * Total *    0.00000      3.99912    13.98105    0.01982    18.00000

                                 Natural Population      
 --------------------------------------------------------
   Core                       3.99912 ( 99.9781% of   4)
   Valence                   13.98105 ( 99.8647% of  14)
   Natural Minimal Basis     17.98018 ( 99.8899% of  18)
   Natural Rydberg Basis      0.01982 (  0.1101% of  18)
 --------------------------------------------------------

    Atom  No          Natural Electron Configuration
 ----------------------------------------------------------------------------
      C    1      [core]2S( 1.12)2p( 3.58)
      C    2      [core]2S( 1.12)2p( 3.58)
      H    3            1S( 0.76)
      H    4            1S( 0.76)
      H    5            1S( 0.76)
      H    6            1S( 0.76)
      H    7            1S( 0.76)
      H    8            1S( 0.76)


 NBO analysis skipped by request.
 Calling FoFJK, ICntrl=      2127 FMM=F ISym2X=1 I1Cent= 0 IOpClX= 0 NMat=1 NMatS=1 NMatT=0.
 ***** Axes restored to original set *****
 -------------------------------------------------------------------
 Center     Atomic                   Forces (Hartrees/Bohr)
 Number     Number              X              Y              Z
 -------------------------------------------------------------------
      1        6          -0.008887361   -0.000078303   -0.000002233
      2        6           0.008887361    0.000078303    0.000002233
      3        1          -0.000982806    0.008169476    0.006420943
      4        1          -0.000826540   -0.009656787    0.003872549
      5        1          -0.000924777    0.001463094   -0.010291361
      6        1           0.000924777   -0.001463094    0.010291361
      7        1           0.000826540    0.009656787   -0.003872549
      8        1           0.000982806   -0.008169476   -0.006420943
 -------------------------------------------------------------------
 Cartesian Forces:  Max     0.010291361 RMS     0.005814976

 GradGradGradGradGradGradGradGradGradGradGradGradGradGradGradGradGradGrad
 Berny optimization.
 FormGI is forming the generalized inverse of G from B-inverse, IUseBI=4.
 Internal  Forces:  Max     0.011621936 RMS     0.005744143
 Search for a local minimum.
 Step number   1 out of a maximum of   38
 All quantities printed in internal units (Hartrees-Bohrs-Radians)
 Mixed Optimization -- RFO/linear search
 Second derivative matrix not updated -- first step.
 ITU=  0
     Eigenvalues ---    0.00512   0.05834   0.05834   0.05835   0.05835
     Eigenvalues ---    0.16000   0.16000   0.16000   0.16000   0.16000
     Eigenvalues ---    0.16000   0.30446   0.32559   0.32559   0.32559
     Eigenvalues ---    0.32559   0.32559   0.32559
 RFO step:  Lambda=-3.60492200D-03 EMin= 5.12250640D-03
 Linear search not attempted -- first point.
 Iteration  1 RMS(Cart)=  0.03669087 RMS(Int)=  0.00065535
 Iteration  2 RMS(Cart)=  0.00063534 RMS(Int)=  0.00024851
 Iteration  3 RMS(Cart)=  0.00000032 RMS(Int)=  0.00024851
 ClnCor:  largest displacement from symmetrization is 3.82D-09 for atom     6.
 Variable       Old X    -DE/DX   Delta X   Delta X   Delta X     New X
                                 (Linear)    (Quad)   (Total)
    R1        2.87083   0.01162   0.00000   0.03773   0.03773   2.90856
    R2        2.09833  -0.00947   0.00000  -0.02877  -0.02877   2.06956
    R3        2.09833  -0.00947   0.00000  -0.02877  -0.02877   2.06956
    R4        2.09833  -0.00947   0.00000  -0.02877  -0.02877   2.06956
    R5        2.09833  -0.00947   0.00000  -0.02877  -0.02877   2.06956
    R6        2.09833  -0.00947   0.00000  -0.02877  -0.02877   2.06956
    R7        2.09833  -0.00947   0.00000  -0.02877  -0.02877   2.06956
    A1        1.91684   0.00454   0.00000   0.02775   0.02736   1.94420
    A2        1.91684   0.00454   0.00000   0.02775   0.02736   1.94420
    A3        1.91684   0.00454   0.00000   0.02775   0.02736   1.94420
    A4        1.90438  -0.00460   0.00000  -0.02811  -0.02847   1.87590
    A5        1.90438  -0.00460   0.00000  -0.02811  -0.02848   1.87591
    A6        1.90439  -0.00460   0.00000  -0.02811  -0.02848   1.87591
    A7        1.91684   0.00454   0.00000   0.02775   0.02736   1.94420
    A8        1.91684   0.00454   0.00000   0.02775   0.02736   1.94420
    A9        1.91684   0.00454   0.00000   0.02775   0.02736   1.94420
   A10        1.90439  -0.00460   0.00000  -0.02811  -0.02848   1.87591
   A11        1.90438  -0.00460   0.00000  -0.02811  -0.02848   1.87591
   A12        1.90438  -0.00460   0.00000  -0.02811  -0.02847   1.87590
    D1        1.04720   0.00000   0.00000   0.00000   0.00000   1.04720
    D2       -1.04720   0.00000   0.00000   0.00000   0.00000  -1.04720
    D3        3.14159   0.00000   0.00000   0.00000   0.00000   3.14159
    D4       -1.04719  -0.00000   0.00000  -0.00000  -0.00000  -1.04720
    D5        3.14159   0.00000   0.00000   0.00000   0.00000   3.14159
    D6        1.04720  -0.00000   0.00000  -0.00000  -0.00000   1.04720
    D7        3.14159  -0.00000   0.00000   0.00000   0.00000   3.14159
    D8        1.04719   0.00000   0.00000   0.00000   0.00000   1.04720
    D9       -1.04720  -0.00000   0.00000  -0.00000  -0.00000  -1.04720
         Item               Value     Threshold  Converged?
 Maximum Force            0.011622     0.000450     NO 
 RMS     Force            0.005744     0.000300     NO 
 Maximum Displacement     0.062413     0.001800     NO 
 RMS     Displacement     0.036398     0.001200     NO 
 Predicted change in Energy=-1.830700D-03
 GradGradGradGradGradGradGradGradGradGradGradGradGradGradGradGradGradGrad

                          Input orientation:                          
 ---------------------------------------------------------------------
 Center     Atomic      Atomic             Coordinates (Angstroms)
 Number     Number       Type             X           Y           Z
 ---------------------------------------------------------------------
      1          6           0       -3.185981    2.906382   -0.000001
      2          6           0       -1.646899    2.919908    0.000001
      3          1           0       -3.578417    2.100860   -0.629692
      4          1           0       -3.593783    3.849183   -0.379747
      5          1           0       -3.584199    2.758571    1.009432
      6          1           0       -1.248681    3.067719   -1.009432
      7          1           0       -1.239097    1.977107    0.379747
      8          1           0       -1.254463    3.725430    0.629692
 ---------------------------------------------------------------------
                    Distance matrix (angstroms):
                    1          2          3          4          5
     1  C    0.000000
     2  C    1.539142   0.000000
     3  H    1.095163   2.190460   0.000000
     4  H    1.095164   2.190462   1.766166   0.000000
     5  H    1.095163   2.190460   1.766167   1.766167   0.000000
     6  H    2.190460   1.095163   2.550822   2.550823   3.102585
     7  H    2.190462   1.095164   2.550824   3.102588   2.550823
     8  H    2.190460   1.095163   3.102586   2.550824   2.550822
                    6          7          8
     6  H    0.000000
     7  H    1.766167   0.000000
     8  H    1.766167   1.766166   0.000000
 Stoichiometry    C2H6
 Framework group  CI[X(C2H6)]
 Deg. of freedom     9
 Full point group                 CI      NOp   2
 Largest Abelian subgroup         CI      NOp   2
 Largest concise Abelian subgroup CI      NOp   2
                         Standard orientation:                         
 ---------------------------------------------------------------------
 Center     Atomic      Atomic             Coordinates (Angstroms)
 Number     Number       Type             X           Y           Z
 ---------------------------------------------------------------------
      1          6           0       -0.769541   -0.006763   -0.000001
      2          6           0        0.769541    0.006763    0.000001
      3          1           0       -1.161977   -0.812285   -0.629692
      4          1           0       -1.177343    0.936038   -0.379747
      5          1           0       -1.167759   -0.154574    1.009432
      6          1           0        1.167759    0.154574   -1.009432
      7          1           0        1.177343   -0.936038    0.379747
      8          1           0        1.161977    0.812285    0.629692
 ---------------------------------------------------------------------
 Rotational constants (GHZ):          80.3782708          19.7243808          19.7243760
 Standard basis: 6-31+G(d,p) (6D, 7F)
 There are    34 symmetry adapted cartesian basis functions of AG  symmetry.
 There are    34 symmetry adapted cartesian basis functions of AU  symmetry.
 There are    34 symmetry adapted basis functions of AG  symmetry.
 There are    34 symmetry adapted basis functions of AU  symmetry.
    68 basis functions,   106 primitive gaussians,    68 cartesian basis functions
     9 alpha electrons        9 beta electrons
       nuclear repulsion energy        42.0233735910 Hartrees.
 NAtoms=    8 NActive=    8 NUniq=    4 SFac= 4.00D+00 NAtFMM=   60 NAOKFM=F Big=F
 Integral buffers will be    131072 words long.
 Raffenetti 2 integral format.
 Two-electron integral symmetry is turned on.
 One-electron integrals computed using PRISM.
 NBasis=    68 RedAO= T EigKep=  3.54D-04  NBF=    34    34
 NBsUse=    68 1.00D-06 EigRej= -1.00D+00 NBFU=    34    34
 Initial guess from the checkpoint file:  "etano.chk"
 B after Tr=     0.000000   -0.000000   -0.000000
         Rot=    1.000000   -0.000000    0.000000    0.000000 Ang=   0.00 deg.
 Initial guess orbital symmetries:
       Occupied  (AG) (AU) (AG) (AU) (AU) (AU) (AG) (AG) (AG)
       Virtual   (AG) (AU) (AU) (AU) (AG) (AG) (AG) (AU) (AG) (AG)
                 (AU) (AU) (AU) (AG) (AU) (AG) (AU) (AU) (AG) (AG)
                 (AU) (AU) (AU) (AG) (AG) (AG) (AU) (AG) (AU) (AU)
                 (AU) (AG) (AG) (AG) (AU) (AG) (AG) (AG) (AU) (AU)
                 (AU) (AU) (AU) (AG) (AG) (AG) (AU) (AU) (AU) (AG)
                 (AG) (AG) (AU) (AG) (AG) (AU) (AU) (AG) (AU)
 ExpMin= 4.38D-02 ExpMax= 3.05D+03 ExpMxC= 4.57D+02 IAcc=3 IRadAn=         5 AccDes= 0.00D+00
 Harris functional with IExCor=  402 and IRadAn=       5 diagonalized for initial guess.
 HarFok:  IExCor=  402 AccDes= 0.00D+00 IRadAn=         5 IDoV= 1 UseB2=F ITyADJ=14
 ICtDFT=  3500011 ScaDFX=  1.000000  1.000000  1.000000  1.000000
 FoFCou: FMM=F IPFlag=           0 FMFlag=      100000 FMFlg1=           0
         NFxFlg=           0 DoJE=T BraDBF=F KetDBF=T FulRan=T
         wScrn=  0.000000 ICntrl=       500 IOpCl=  0 I1Cent=   200000004 NGrid=           0
         NMat0=    1 NMatS0=      1 NMatT0=    0 NMatD0=    1 NMtDS0=    0 NMtDT0=    0
 Petite list used in FoFCou.
 Keep R1 ints in memory in symmetry-blocked form, NReq=4136385.
 Requested convergence on RMS density matrix=1.00D-08 within 128 cycles.
 Requested convergence on MAX density matrix=1.00D-06.
 Requested convergence on             energy=1.00D-06.
 No special actions if energy rises.
 SCF Done:  E(RB3LYP) =  -79.8416166215     A.U. after    7 cycles
            NFock=  7  Conv=0.18D-08     -V/T= 2.0111
 Calling FoFJK, ICntrl=      2127 FMM=F ISym2X=1 I1Cent= 0 IOpClX= 0 NMat=1 NMatS=1 NMatT=0.
 ***** Axes restored to original set *****
 -------------------------------------------------------------------
 Center     Atomic                   Forces (Hartrees/Bohr)
 Number     Number              X              Y              Z
 -------------------------------------------------------------------
      1        6           0.003199973    0.000027806   -0.000000815
      2        6          -0.003199973   -0.000027806    0.000000815
      3        1           0.000215297   -0.000267774   -0.000211628
      4        1           0.000210140    0.000319939   -0.000127326
      5        1           0.000213366   -0.000046620    0.000339606
      6        1          -0.000213366    0.000046620   -0.000339606
      7        1          -0.000210140   -0.000319939    0.000127326
      8        1          -0.000215297    0.000267774    0.000211628
 -------------------------------------------------------------------
 Cartesian Forces:  Max     0.003199973 RMS     0.000945569

 GradGradGradGradGradGradGradGradGradGradGradGradGradGradGradGradGradGrad
 Berny optimization.
 Using GEDIIS/GDIIS optimizer.
 FormGI is forming the generalized inverse of G from B-inverse, IUseBI=4.
 Internal  Forces:  Max     0.003838921 RMS     0.000763963
 Search for a local minimum.
 Step number   2 out of a maximum of   38
 All quantities printed in internal units (Hartrees-Bohrs-Radians)
 Mixed Optimization -- En-DIIS/RFO-DIIS
 Update second derivatives using D2CorX and points    1    2
 DE= -1.65D-03 DEPred=-1.83D-03 R= 9.03D-01
 TightC=F SS=  1.41D+00  RLast= 1.25D-01 DXNew= 5.0454D-01 3.7644D-01
 Trust test= 9.03D-01 RLast= 1.25D-01 DXMaxT set to 3.76D-01
 ITU=  1  0
 Use linear search instead of GDIIS.
     Eigenvalues ---    0.00512   0.05550   0.05550   0.05550   0.05550
     Eigenvalues ---    0.16000   0.16000   0.16000   0.16000   0.16000
     Eigenvalues ---    0.16433   0.30568   0.32559   0.32559   0.32559
     Eigenvalues ---    0.32559   0.32559   0.34701
 RFO step:  Lambda=-2.80439595D-05 EMin= 5.12250640D-03
 Quartic linear search produced a step of -0.07572.
 Iteration  1 RMS(Cart)=  0.00427886 RMS(Int)=  0.00001720
 Iteration  2 RMS(Cart)=  0.00000188 RMS(Int)=  0.00001713
 Iteration  3 RMS(Cart)=  0.00000000 RMS(Int)=  0.00001713
 ClnCor:  largest displacement from symmetrization is 5.77D-09 for atom     6.
 Variable       Old X    -DE/DX   Delta X   Delta X   Delta X     New X
                                 (Linear)    (Quad)   (Total)
    R1        2.90856  -0.00384  -0.00286  -0.00847  -0.01133   2.89723
    R2        2.06956   0.00024   0.00218  -0.00174   0.00044   2.07000
    R3        2.06956   0.00024   0.00218  -0.00174   0.00044   2.07000
    R4        2.06956   0.00024   0.00218  -0.00174   0.00044   2.07000
    R5        2.06956   0.00024   0.00218  -0.00174   0.00044   2.07000
    R6        2.06956   0.00024   0.00218  -0.00174   0.00044   2.07000
    R7        2.06956   0.00024   0.00218  -0.00174   0.00044   2.07000
    A1        1.94420  -0.00031  -0.00207   0.00049  -0.00155   1.94265
    A2        1.94420  -0.00031  -0.00207   0.00049  -0.00156   1.94264
    A3        1.94420  -0.00031  -0.00207   0.00049  -0.00156   1.94264
    A4        1.87590   0.00033   0.00216  -0.00052   0.00166   1.87756
    A5        1.87591   0.00033   0.00216  -0.00052   0.00166   1.87757
    A6        1.87591   0.00033   0.00216  -0.00052   0.00166   1.87756
    A7        1.94420  -0.00031  -0.00207   0.00049  -0.00156   1.94264
    A8        1.94420  -0.00031  -0.00207   0.00049  -0.00156   1.94264
    A9        1.94420  -0.00031  -0.00207   0.00049  -0.00155   1.94265
   A10        1.87591   0.00033   0.00216  -0.00052   0.00166   1.87756
   A11        1.87591   0.00033   0.00216  -0.00052   0.00166   1.87757
   A12        1.87590   0.00033   0.00216  -0.00052   0.00166   1.87756
    D1        1.04720  -0.00000  -0.00000  -0.00000  -0.00000   1.04720
    D2       -1.04720   0.00000  -0.00000   0.00000   0.00000  -1.04720
    D3        3.14159  -0.00000  -0.00000   0.00000  -0.00000   3.14159
    D4       -1.04720  -0.00000   0.00000  -0.00000  -0.00000  -1.04720
    D5        3.14159  -0.00000   0.00000   0.00000   0.00000   3.14159
    D6        1.04720  -0.00000   0.00000  -0.00000  -0.00000   1.04720
    D7        3.14159   0.00000  -0.00000   0.00000   0.00000   3.14159
    D8        1.04720   0.00000  -0.00000   0.00000   0.00000   1.04720
    D9       -1.04720   0.00000   0.00000   0.00000   0.00000  -1.04720
         Item               Value     Threshold  Converged?
 Maximum Force            0.003839     0.000450     NO 
 RMS     Force            0.000764     0.000300     NO 
 Maximum Displacement     0.008513     0.001800     NO 
 RMS     Displacement     0.004280     0.001200     NO 
 Predicted change in Energy=-2.517601D-05
 GradGradGradGradGradGradGradGradGradGradGradGradGradGradGradGradGradGrad

                          Input orientation:                          
 ---------------------------------------------------------------------
 Center     Atomic      Atomic             Coordinates (Angstroms)
 Number     Number       Type             X           Y           Z
 ---------------------------------------------------------------------
      1          6           0       -3.182984    2.906408   -0.000002
      2          6           0       -1.649896    2.919882    0.000002
      3          1           0       -3.573913    2.100240   -0.630210
      4          1           0       -3.589291    3.850000   -0.380059
      5          1           0       -3.579699    2.758492    1.010261
      6          1           0       -1.253181    3.067798   -1.010261
      7          1           0       -1.243589    1.976290    0.380059
      8          1           0       -1.258967    3.726050    0.630210
 ---------------------------------------------------------------------
                    Distance matrix (angstroms):
                    1          2          3          4          5
     1  C    0.000000
     2  C    1.533147   0.000000
     3  H    1.095397   2.184220   0.000000
     4  H    1.095397   2.184220   1.767617   0.000000
     5  H    1.095396   2.184218   1.767618   1.767617   0.000000
     6  H    2.184218   1.095396   2.542911   2.542912   3.096912
     7  H    2.184220   1.095397   2.542914   3.096915   2.542912
     8  H    2.184220   1.095397   3.096915   2.542914   2.542911
                    6          7          8
     6  H    0.000000
     7  H    1.767617   0.000000
     8  H    1.767618   1.767617   0.000000
 Stoichiometry    C2H6
 Framework group  CI[X(C2H6)]
 Deg. of freedom     9
 Full point group                 CI      NOp   2
 Largest Abelian subgroup         CI      NOp   2
 Largest concise Abelian subgroup CI      NOp   2
                         Standard orientation:                         
 ---------------------------------------------------------------------
 Center     Atomic      Atomic             Coordinates (Angstroms)
 Number     Number       Type             X           Y           Z
 ---------------------------------------------------------------------
      1          6           0       -0.766544   -0.006737   -0.000002
      2          6           0        0.766544    0.006737    0.000002
      3          1           0       -1.157473   -0.812905   -0.630210
      4          1           0       -1.172851    0.936855   -0.380059
      5          1           0       -1.163259   -0.154653    1.010261
      6          1           0        1.163259    0.154653   -1.010261
      7          1           0        1.172851   -0.936855    0.380059
      8          1           0        1.157473    0.812905    0.630210
 ---------------------------------------------------------------------
 Rotational constants (GHZ):          80.2464117          19.8552282          19.8552241
 Standard basis: 6-31+G(d,p) (6D, 7F)
 There are    34 symmetry adapted cartesian basis functions of AG  symmetry.
 There are    34 symmetry adapted cartesian basis functions of AU  symmetry.
 There are    34 symmetry adapted basis functions of AG  symmetry.
 There are    34 symmetry adapted basis functions of AU  symmetry.
    68 basis functions,   106 primitive gaussians,    68 cartesian basis functions
     9 alpha electrons        9 beta electrons
       nuclear repulsion energy        42.0962597128 Hartrees.
 NAtoms=    8 NActive=    8 NUniq=    4 SFac= 4.00D+00 NAtFMM=   60 NAOKFM=F Big=F
 Integral buffers will be    131072 words long.
 Raffenetti 2 integral format.
 Two-electron integral symmetry is turned on.
 One-electron integrals computed using PRISM.
 NBasis=    68 RedAO= T EigKep=  3.47D-04  NBF=    34    34
 NBsUse=    68 1.00D-06 EigRej= -1.00D+00 NBFU=    34    34
 Initial guess from the checkpoint file:  "etano.chk"
 B after Tr=    -0.000000    0.000000    0.000000
         Rot=    1.000000   -0.000000    0.000000   -0.000000 Ang=   0.00 deg.
 Initial guess orbital symmetries:
       Occupied  (AG) (AU) (AG) (AU) (AU) (AU) (AG) (AG) (AG)
       Virtual   (AG) (AU) (AU) (AU) (AG) (AG) (AG) (AU) (AG) (AG)
                 (AU) (AU) (AU) (AG) (AU) (AG) (AU) (AU) (AG) (AG)
                 (AU) (AU) (AU) (AG) (AG) (AG) (AU) (AG) (AU) (AU)
                 (AU) (AG) (AG) (AG) (AU) (AG) (AU) (AU) (AG) (AG)
                 (AU) (AU) (AU) (AG) (AG) (AG) (AU) (AU) (AU) (AG)
                 (AG) (AG) (AU) (AG) (AG) (AU) (AU) (AG) (AU)
 Keep R1 ints in memory in symmetry-blocked form, NReq=4136385.
 Requested convergence on RMS density matrix=1.00D-08 within 128 cycles.
 Requested convergence on MAX density matrix=1.00D-06.
 Requested convergence on             energy=1.00D-06.
 No special actions if energy rises.
 SCF Done:  E(RB3LYP) =  -79.8416434818     A.U. after    6 cycles
            NFock=  6  Conv=0.29D-08     -V/T= 2.0110
 Calling FoFJK, ICntrl=      2127 FMM=F ISym2X=1 I1Cent= 0 IOpClX= 0 NMat=1 NMatS=1 NMatT=0.
 ***** Axes restored to original set *****
 -------------------------------------------------------------------
 Center     Atomic                   Forces (Hartrees/Bohr)
 Number     Number              X              Y              Z
 -------------------------------------------------------------------
      1        6           0.000753444    0.000006514   -0.000000115
      2        6          -0.000753444   -0.000006514    0.000000115
      3        1          -0.000120629   -0.000067050   -0.000051780
      4        1          -0.000122058    0.000076771   -0.000031113
      5        1          -0.000121215   -0.000013026    0.000083108
      6        1           0.000121215    0.000013026   -0.000083108
      7        1           0.000122058   -0.000076771    0.000031113
      8        1           0.000120629    0.000067050    0.000051780
 -------------------------------------------------------------------
 Cartesian Forces:  Max     0.000753444 RMS     0.000229670

 GradGradGradGradGradGradGradGradGradGradGradGradGradGradGradGradGradGrad
 Berny optimization.
 Using GEDIIS/GDIIS optimizer.
 FormGI is forming the generalized inverse of G from B-inverse, IUseBI=4.
 Internal  Forces:  Max     0.000389555 RMS     0.000107477
 Search for a local minimum.
 Step number   3 out of a maximum of   38
 All quantities printed in internal units (Hartrees-Bohrs-Radians)
 Mixed Optimization -- En-DIIS/RFO-DIIS
 Swapping is turned off.
 Update second derivatives using D2CorX and points    1    2    3
 DE= -2.69D-05 DEPred=-2.52D-05 R= 1.07D+00
 TightC=F SS=  1.41D+00  RLast= 1.27D-02 DXNew= 6.3310D-01 3.8015D-02
 Trust test= 1.07D+00 RLast= 1.27D-02 DXMaxT set to 3.76D-01
 ITU=  1  1  0
     Eigenvalues ---    0.00512   0.05566   0.05566   0.05566   0.05566
     Eigenvalues ---    0.16000   0.16000   0.16000   0.16000   0.16000
     Eigenvalues ---    0.17004   0.29735   0.32087   0.32559   0.32559
     Eigenvalues ---    0.32559   0.32559   0.32559
 En-DIIS/RFO-DIIS/Sim-DIIS IScMMF=       -3 using points:     3    2
 RFO step:  Lambda=-1.44334551D-06.
 DidBck=F Rises=F RFO-DIIS coefs:    1.05380   -0.05380
 Iteration  1 RMS(Cart)=  0.00027009 RMS(Int)=  0.00000017
 Iteration  2 RMS(Cart)=  0.00000013 RMS(Int)=  0.00000013
 ClnCor:  largest displacement from symmetrization is 8.73D-09 for atom     8.
 Variable       Old X    -DE/DX   Delta X   Delta X   Delta X     New X
                                 (Linear)    (Quad)   (Total)
    R1        2.89723  -0.00039  -0.00061  -0.00099  -0.00160   2.89563
    R2        2.07000   0.00012   0.00002   0.00036   0.00038   2.07038
    R3        2.07000   0.00012   0.00002   0.00036   0.00038   2.07038
    R4        2.07000   0.00012   0.00002   0.00036   0.00038   2.07038
    R5        2.07000   0.00012   0.00002   0.00036   0.00038   2.07038
    R6        2.07000   0.00012   0.00002   0.00036   0.00038   2.07038
    R7        2.07000   0.00012   0.00002   0.00036   0.00038   2.07038
    A1        1.94265   0.00008  -0.00008   0.00061   0.00053   1.94317
    A2        1.94264   0.00008  -0.00008   0.00061   0.00053   1.94317
    A3        1.94264   0.00008  -0.00008   0.00061   0.00053   1.94317
    A4        1.87756  -0.00009   0.00009  -0.00065  -0.00056   1.87700
    A5        1.87757  -0.00009   0.00009  -0.00065  -0.00056   1.87700
    A6        1.87756  -0.00009   0.00009  -0.00065  -0.00056   1.87700
    A7        1.94264   0.00008  -0.00008   0.00061   0.00053   1.94317
    A8        1.94264   0.00008  -0.00008   0.00061   0.00053   1.94317
    A9        1.94265   0.00008  -0.00008   0.00061   0.00053   1.94317
   A10        1.87756  -0.00009   0.00009  -0.00065  -0.00056   1.87700
   A11        1.87757  -0.00009   0.00009  -0.00065  -0.00056   1.87700
   A12        1.87756  -0.00009   0.00009  -0.00065  -0.00056   1.87700
    D1        1.04720  -0.00000  -0.00000  -0.00000  -0.00000   1.04720
    D2       -1.04720   0.00000   0.00000   0.00000   0.00000  -1.04720
    D3        3.14159   0.00000  -0.00000  -0.00000   0.00000   3.14159
    D4       -1.04720  -0.00000  -0.00000  -0.00000  -0.00000  -1.04720
    D5        3.14159   0.00000  -0.00000  -0.00000   0.00000   3.14159
    D6        1.04720  -0.00000  -0.00000  -0.00000  -0.00000   1.04720
    D7        3.14159  -0.00000  -0.00000  -0.00000   0.00000   3.14159
    D8        1.04720   0.00000   0.00000   0.00000   0.00000   1.04720
    D9       -1.04720   0.00000   0.00000   0.00000   0.00000  -1.04720
         Item               Value     Threshold  Converged?
 Maximum Force            0.000390     0.000450     YES
 RMS     Force            0.000107     0.000300     YES
 Maximum Displacement     0.000800     0.001800     YES
 RMS     Displacement     0.000270     0.001200     YES
 Predicted change in Energy=-7.216772D-07
 Optimization completed.
    -- Stationary point found.
                           ----------------------------
                           !   Optimized Parameters   !
                           ! (Angstroms and Degrees)  !
 --------------------------                            --------------------------
 ! Name  Definition              Value          Derivative Info.                !
 --------------------------------------------------------------------------------
 ! R1    R(1,2)                  1.5331         -DE/DX =   -0.0004              !
 ! R2    R(1,3)                  1.0954         -DE/DX =    0.0001              !
 ! R3    R(1,4)                  1.0954         -DE/DX =    0.0001              !
 ! R4    R(1,5)                  1.0954         -DE/DX =    0.0001              !
 ! R5    R(2,6)                  1.0954         -DE/DX =    0.0001              !
 ! R6    R(2,7)                  1.0954         -DE/DX =    0.0001              !
 ! R7    R(2,8)                  1.0954         -DE/DX =    0.0001              !
 ! A1    A(2,1,3)              111.3054         -DE/DX =    0.0001              !
 ! A2    A(2,1,4)              111.3054         -DE/DX =    0.0001              !
 ! A3    A(2,1,5)              111.3052         -DE/DX =    0.0001              !
 ! A4    A(3,1,4)              107.5764         -DE/DX =   -0.0001              !
 ! A5    A(3,1,5)              107.5766         -DE/DX =   -0.0001              !
 ! A6    A(4,1,5)              107.5764         -DE/DX =   -0.0001              !
 ! A7    A(1,2,6)              111.3052         -DE/DX =    0.0001              !
 ! A8    A(1,2,7)              111.3054         -DE/DX =    0.0001              !
 ! A9    A(1,2,8)              111.3054         -DE/DX =    0.0001              !
 ! A10   A(6,2,7)              107.5764         -DE/DX =   -0.0001              !
 ! A11   A(6,2,8)              107.5766         -DE/DX =   -0.0001              !
 ! A12   A(7,2,8)              107.5764         -DE/DX =   -0.0001              !
 ! D1    D(3,1,2,6)             59.9999         -DE/DX =    0.0                 !
 ! D2    D(3,1,2,7)            -60.0            -DE/DX =    0.0                 !
 ! D3    D(3,1,2,8)            180.0            -DE/DX =    0.0                 !
 ! D4    D(4,1,2,6)            -60.0001         -DE/DX =    0.0                 !
 ! D5    D(4,1,2,7)            180.0            -DE/DX =    0.0                 !
 ! D6    D(4,1,2,8)             60.0            -DE/DX =    0.0                 !
 ! D7    D(5,1,2,6)            180.0            -DE/DX =    0.0                 !
 ! D8    D(5,1,2,7)             60.0001         -DE/DX =    0.0                 !
 ! D9    D(5,1,2,8)            -59.9999         -DE/DX =    0.0                 !
 --------------------------------------------------------------------------------
 GradGradGradGradGradGradGradGradGradGradGradGradGradGradGradGradGradGrad

                          Input orientation:                          
 ---------------------------------------------------------------------
 Center     Atomic      Atomic             Coordinates (Angstroms)
 Number     Number       Type             X           Y           Z
 ---------------------------------------------------------------------
      1          6           0       -3.182984    2.906408   -0.000002
      2          6           0       -1.649896    2.919882    0.000002
      3          1           0       -3.573913    2.100240   -0.630210
      4          1           0       -3.589291    3.850000   -0.380059
      5          1           0       -3.579699    2.758492    1.010261
      6          1           0       -1.253181    3.067798   -1.010261
      7          1           0       -1.243589    1.976290    0.380059
      8          1           0       -1.258967    3.726050    0.630210
 ---------------------------------------------------------------------
                    Distance matrix (angstroms):
                    1          2          3          4          5
     1  C    0.000000
     2  C    1.533147   0.000000
     3  H    1.095397   2.184220   0.000000
     4  H    1.095397   2.184220   1.767617   0.000000
     5  H    1.095396   2.184218   1.767618   1.767617   0.000000
     6  H    2.184218   1.095396   2.542911   2.542912   3.096912
     7  H    2.184220   1.095397   2.542914   3.096915   2.542912
     8  H    2.184220   1.095397   3.096915   2.542914   2.542911
                    6          7          8
     6  H    0.000000
     7  H    1.767617   0.000000
     8  H    1.767618   1.767617   0.000000
 Stoichiometry    C2H6
 Framework group  CI[X(C2H6)]
 Deg. of freedom     9
 Full point group                 CI      NOp   2
 Largest Abelian subgroup         CI      NOp   2
 Largest concise Abelian subgroup CI      NOp   2
                         Standard orientation:                         
 ---------------------------------------------------------------------
 Center     Atomic      Atomic             Coordinates (Angstroms)
 Number     Number       Type             X           Y           Z
 ---------------------------------------------------------------------
      1          6           0       -0.766544   -0.006737   -0.000002
      2          6           0        0.766544    0.006737    0.000002
      3          1           0       -1.157473   -0.812905   -0.630210
      4          1           0       -1.172851    0.936855   -0.380059
      5          1           0       -1.163259   -0.154653    1.010261
      6          1           0        1.163259    0.154653   -1.010261
      7          1           0        1.172851   -0.936855    0.380059
      8          1           0        1.157473    0.812905    0.630210
 ---------------------------------------------------------------------
 Rotational constants (GHZ):          80.2464117          19.8552282          19.8552241

 **********************************************************************

            Population analysis using the SCF Density.

 **********************************************************************

 Orbital symmetries:
       Occupied  (AG) (AU) (AG) (AU) (AU) (AU) (AG) (AG) (AG)
       Virtual   (AG) (AU) (AU) (AU) (AG) (AG) (AG) (AU) (AG) (AG)
                 (AU) (AU) (AU) (AG) (AU) (AG) (AU) (AU) (AG) (AG)
                 (AU) (AU) (AU) (AG) (AG) (AG) (AU) (AG) (AU) (AU)
                 (AU) (AG) (AG) (AG) (AU) (AG) (AU) (AU) (AG) (AG)
                 (AU) (AU) (AU) (AG) (AG) (AG) (AU) (AU) (AU) (AG)
                 (AG) (AG) (AU) (AG) (AG) (AU) (AU) (AG) (AU)
 The electronic state is 1-AG.
 Alpha  occ. eigenvalues --  -10.17804 -10.17783  -0.75289  -0.61719  -0.43473
 Alpha  occ. eigenvalues --   -0.43473  -0.36823  -0.34464  -0.34464
 Alpha virt. eigenvalues --    0.01749   0.03030   0.05369   0.05369   0.08040
 Alpha virt. eigenvalues --    0.08966   0.08966   0.14269   0.19580   0.19580
 Alpha virt. eigenvalues --    0.19801   0.19801   0.25456   0.29764   0.32692
 Alpha virt. eigenvalues --    0.62005   0.64279   0.64279   0.67009   0.67009
 Alpha virt. eigenvalues --    0.69581   0.91584   0.91584   0.96767   0.96767
 Alpha virt. eigenvalues --    1.00288   1.09980   1.11004   1.32472   1.32472
 Alpha virt. eigenvalues --    1.45964   1.67316   1.67316   1.88917   2.05202
 Alpha virt. eigenvalues --    2.05247   2.10006   2.10007   2.11294   2.11294
 Alpha virt. eigenvalues --    2.26504   2.26504   2.38217   2.47444   2.47445
 Alpha virt. eigenvalues --    2.69105   2.78628   2.79732   2.79733   2.90043
 Alpha virt. eigenvalues --    2.90043   3.21132   3.26167   3.39118   3.39118
 Alpha virt. eigenvalues --    3.51704   3.51704   4.32937   4.58080
          Condensed to atoms (all electrons):
               1          2          3          4          5          6
     1  C    5.086720   0.268364   0.404285   0.404285   0.404284  -0.044501
     2  C    0.268364   5.086720  -0.044501  -0.044501  -0.044501   0.404284
     3  H    0.404285  -0.044501   0.558350  -0.029615  -0.029614  -0.004100
     4  H    0.404285  -0.044501  -0.029615   0.558350  -0.029615  -0.004100
     5  H    0.404284  -0.044501  -0.029614  -0.029615   0.558350   0.004483
     6  H   -0.044501   0.404284  -0.004100  -0.004100   0.004483   0.558350
     7  H   -0.044501   0.404285  -0.004100   0.004483  -0.004100  -0.029615
     8  H   -0.044501   0.404285   0.004483  -0.004100  -0.004100  -0.029614
               7          8
     1  C   -0.044501  -0.044501
     2  C    0.404285   0.404285
     3  H   -0.004100   0.004483
     4  H    0.004483  -0.004100
     5  H   -0.004100  -0.004100
     6  H   -0.029615  -0.029614
     7  H    0.558350  -0.029615
     8  H   -0.029615   0.558350
 Mulliken charges:
               1
     1  C   -0.434436
     2  C   -0.434436
     3  H    0.144812
     4  H    0.144812
     5  H    0.144812
     6  H    0.144812
     7  H    0.144812
     8  H    0.144812
 Sum of Mulliken charges =  -0.00000
 Mulliken charges with hydrogens summed into heavy atoms:
               1
     1  C   -0.000000
     2  C   -0.000000
 Electronic spatial extent (au):  <R**2>=            110.6926
 Charge=             -0.0000 electrons
 Dipole moment (field-independent basis, Debye):
    X=              0.0000    Y=              0.0000    Z=             -0.0000  Tot=              0.0000
 Quadrupole moment (field-independent basis, Debye-Ang):
   XX=            -15.7674   YY=            -15.0736   ZZ=            -15.0736
   XY=             -0.0061   XZ=              0.0000   YZ=              0.0000
 Traceless Quadrupole moment (field-independent basis, Debye-Ang):
   XX=             -0.4625   YY=              0.2312   ZZ=              0.2313
   XY=             -0.0061   XZ=              0.0000   YZ=              0.0000
 Octapole moment (field-independent basis, Debye-Ang**2):
  XXX=              0.0000  YYY=             -0.0000  ZZZ=             -0.0000  XYY=             -0.0000
  XXY=              0.0000  XXZ=             -0.0000  XZZ=             -0.0000  YZZ=              0.0000
  YYZ=             -0.0000  XYZ=              0.0000
 Hexadecapole moment (field-independent basis, Debye-Ang**3):
 XXXX=            -99.0074 YYYY=            -31.3740 ZZZZ=            -31.3506 XXXY=             -0.3244
 XXXZ=              0.0002 YYYX=             -0.7984 YYYZ=              0.0307 ZZZX=             -1.1642
 ZZZY=             -0.0102 XXYY=            -20.6947 XXZZ=            -20.7120 YYZZ=            -10.4417
 XXYZ=             -0.0205 YYXZ=              1.1638 ZZXY=              0.4381
 N-N= 4.209625971281D+01 E-N=-2.679283668623D+02  KE= 7.897136930344D+01
 Symmetry AG   KE= 4.099549643565D+01
 Symmetry AU   KE= 3.797587286779D+01
 ******************************Gaussian NBO Version 3.1******************************
             N A T U R A L   A T O M I C   O R B I T A L   A N D
          N A T U R A L   B O N D   O R B I T A L   A N A L Y S I S
 ******************************Gaussian NBO Version 3.1******************************
       /RESON  / : Allow strongly delocalized NBO set

 Analyzing the SCF density

 Job title: etano                                                           

 Storage needed:     14264 in NPA ( 104857200 available)
 GSVD:  LWork=        1432 too small for GESVD, short by        4610 words or        4610 for optimal perf.


 NATURAL POPULATIONS:  Natural atomic orbital occupancies 
                                                          
   NAO  Atom  No  lang   Type(AO)    Occupancy      Energy
 ----------------------------------------------------------
     1    C    1  S      Cor( 1S)     1.99958     -10.04923
     2    C    1  S      Val( 2S)     1.11503      -0.27298
     3    C    1  S      Ryd( 3S)     0.00037       0.86923
     4    C    1  S      Ryd( 4S)     0.00027       0.91809
     5    C    1  S      Ryd( 5S)     0.00000       4.15804
     6    C    1  px     Val( 2p)     1.08709      -0.07092
     7    C    1  px     Ryd( 4p)     0.00060       0.56601
     8    C    1  px     Ryd( 3p)     0.00006       0.18559
     9    C    1  py     Val( 2p)     1.24922      -0.08198
    10    C    1  py     Ryd( 4p)     0.00095       0.63728
    11    C    1  py     Ryd( 3p)     0.00000       0.26257
    12    C    1  pz     Val( 2p)     1.24923      -0.08198
    13    C    1  pz     Ryd( 4p)     0.00095       0.63728
    14    C    1  pz     Ryd( 3p)     0.00000       0.26258
    15    C    1  dxy    Ryd( 3d)     0.00056       2.20391
    16    C    1  dxz    Ryd( 3d)     0.00056       2.20014
    17    C    1  dyz    Ryd( 3d)     0.00057       2.35928
    18    C    1  dx2y2  Ryd( 3d)     0.00062       2.35968
    19    C    1  dz2    Ryd( 3d)     0.00058       2.35881

    20    C    2  S      Cor( 1S)     1.99958     -10.04923
    21    C    2  S      Val( 2S)     1.11503      -0.27298
    22    C    2  S      Ryd( 3S)     0.00037       0.86923
    23    C    2  S      Ryd( 4S)     0.00027       0.91809
    24    C    2  S      Ryd( 5S)     0.00000       4.15804
    25    C    2  px     Val( 2p)     1.08709      -0.07092
    26    C    2  px     Ryd( 4p)     0.00060       0.56601
    27    C    2  px     Ryd( 3p)     0.00006       0.18559
    28    C    2  py     Val( 2p)     1.24922      -0.08198
    29    C    2  py     Ryd( 4p)     0.00095       0.63728
    30    C    2  py     Ryd( 3p)     0.00000       0.26257
    31    C    2  pz     Val( 2p)     1.24923      -0.08198
    32    C    2  pz     Ryd( 4p)     0.00095       0.63728
    33    C    2  pz     Ryd( 3p)     0.00000       0.26258
    34    C    2  dxy    Ryd( 3d)     0.00056       2.20391
    35    C    2  dxz    Ryd( 3d)     0.00056       2.20014
    36    C    2  dyz    Ryd( 3d)     0.00057       2.35928
    37    C    2  dx2y2  Ryd( 3d)     0.00062       2.35968
    38    C    2  dz2    Ryd( 3d)     0.00058       2.35881

    39    H    3  S      Val( 1S)     0.76345       0.07979
    40    H    3  S      Ryd( 2S)     0.00055       0.67716
    41    H    3  px     Ryd( 2p)     0.00012       2.39107
    42    H    3  py     Ryd( 2p)     0.00026       2.70612
    43    H    3  pz     Ryd( 2p)     0.00020       2.55562

    44    H    4  S      Val( 1S)     0.76345       0.07979
    45    H    4  S      Ryd( 2S)     0.00055       0.67716
    46    H    4  px     Ryd( 2p)     0.00013       2.39847
    47    H    4  py     Ryd( 2p)     0.00033       2.84916
    48    H    4  pz     Ryd( 2p)     0.00013       2.40518

    49    H    5  S      Val( 1S)     0.76345       0.07979
    50    H    5  S      Ryd( 2S)     0.00055       0.67716
    51    H    5  px     Ryd( 2p)     0.00012       2.39382
    52    H    5  py     Ryd( 2p)     0.00009       2.33223
    53    H    5  pz     Ryd( 2p)     0.00037       2.92676

    54    H    6  S      Val( 1S)     0.76345       0.07979
    55    H    6  S      Ryd( 2S)     0.00055       0.67716
    56    H    6  px     Ryd( 2p)     0.00012       2.39382
    57    H    6  py     Ryd( 2p)     0.00009       2.33223
    58    H    6  pz     Ryd( 2p)     0.00037       2.92676

    59    H    7  S      Val( 1S)     0.76345       0.07979
    60    H    7  S      Ryd( 2S)     0.00055       0.67716
    61    H    7  px     Ryd( 2p)     0.00013       2.39847
    62    H    7  py     Ryd( 2p)     0.00033       2.84916
    63    H    7  pz     Ryd( 2p)     0.00013       2.40518

    64    H    8  S      Val( 1S)     0.76345       0.07979
    65    H    8  S      Ryd( 2S)     0.00055       0.67716
    66    H    8  px     Ryd( 2p)     0.00012       2.39107
    67    H    8  py     Ryd( 2p)     0.00026       2.70612
    68    H    8  pz     Ryd( 2p)     0.00020       2.55562

 WARNING:  Population inversion found on atom  C    1
           Population inversion found on atom  C    2


 Summary of Natural Population Analysis:                  
                                                          
                                       Natural Population 
                Natural  -----------------------------------------------
    Atom  No    Charge         Core      Valence    Rydberg      Total
 -----------------------------------------------------------------------
      C    1   -0.70625      1.99958     4.70057    0.00610     6.70625
      C    2   -0.70625      1.99958     4.70057    0.00610     6.70625
      H    3    0.23542      0.00000     0.76345    0.00113     0.76458
      H    4    0.23542      0.00000     0.76345    0.00113     0.76458
      H    5    0.23542      0.00000     0.76345    0.00113     0.76458
      H    6    0.23542      0.00000     0.76345    0.00113     0.76458
      H    7    0.23542      0.00000     0.76345    0.00113     0.76458
      H    8    0.23542      0.00000     0.76345    0.00113     0.76458
 =======================================================================
   * Total *   -0.00000      3.99917    13.98184    0.01899    18.00000

                                 Natural Population      
 --------------------------------------------------------
   Core                       3.99917 ( 99.9792% of   4)
   Valence                   13.98184 ( 99.8703% of  14)
   Natural Minimal Basis     17.98101 ( 99.8945% of  18)
   Natural Rydberg Basis      0.01899 (  0.1055% of  18)
 --------------------------------------------------------

    Atom  No          Natural Electron Configuration
 ----------------------------------------------------------------------------
      C    1      [core]2S( 1.12)2p( 3.59)
      C    2      [core]2S( 1.12)2p( 3.59)
      H    3            1S( 0.76)
      H    4            1S( 0.76)
      H    5            1S( 0.76)
      H    6            1S( 0.76)
      H    7            1S( 0.76)
      H    8            1S( 0.76)


 NBO analysis skipped by request.
 1\1\GINC-DYME\FOpt\RB3LYP\6-31+G(d,p)\C2H6\MONTOYA\18-Feb-2019\0\\#n B
 3LYP/6-31+G(d,p) Opt Pop=NPA\\etano\\0,1\C,-3.1829837416,2.9064081554,
 -0.000001758\C,-1.6498962584,2.9198818446,0.000001758\H,-3.5739125173,
 2.1002404449,-0.6302096402\H,-3.5892906929,3.8499997831,-0.3800585291\
 H,-3.5796985608,2.758492408,1.0102610211\H,-1.2531814392,3.067797592,-
 1.0102610211\H,-1.2435893071,1.9762902169,0.3800585291\H,-1.2589674827
 ,3.7260495551,0.6302096402\\Version=EM64L-G16RevB.01\State=1-AG\HF=-79
 .8416435\RMSD=2.907e-09\RMSF=2.297e-04\Dipole=0.,0.,0.\Quadrupole=-0.3
 438672,0.1719116,0.1719556,-0.0045339,0.000003,0.0000027\PG=CI [X(C2H6
 )]\\@


 LENDING MONEY TO FRIENDS CAUSES THEM TO LOSE THEIR MEMORIES.

    --  PETER'S THEORY OF RECIPROCAL INHIBITION OF FISCAL RECALL
 Job cpu time:       0 days  0 hours  0 minutes 43.1 seconds.
 Elapsed time:       0 days  0 hours  0 minutes 45.3 seconds.
 File lengths (MBytes):  RWF=     17 Int=      0 D2E=      0 Chk=      2 Scr=      2
 Normal termination of Gaussian 16 at Mon Feb 18 11:25:41 2019.
