 Entering Gaussian System, Link 0=g16
 Input=Benceno.com
 Output=Benceno.log
 Initial command:
 /opt/g16/l1.exe "/scratch/Montoya/Benceno/Gau-19632.inp" -scrdir="/scratch/Montoya/Benceno/"
 Entering Link 1 = /opt/g16/l1.exe PID=     19634.
  
 Copyright (c) 1988-2017, Gaussian, Inc.  All Rights Reserved.
  
 This is part of the Gaussian(R) 16 program.  It is based on
 the Gaussian(R) 09 system (copyright 2009, Gaussian, Inc.),
 the Gaussian(R) 03 system (copyright 2003, Gaussian, Inc.),
 the Gaussian(R) 98 system (copyright 1998, Gaussian, Inc.),
 the Gaussian(R) 94 system (copyright 1995, Gaussian, Inc.),
 the Gaussian 92(TM) system (copyright 1992, Gaussian, Inc.),
 the Gaussian 90(TM) system (copyright 1990, Gaussian, Inc.),
 the Gaussian 88(TM) system (copyright 1988, Gaussian, Inc.),
 the Gaussian 86(TM) system (copyright 1986, Carnegie Mellon
 University), and the Gaussian 82(TM) system (copyright 1983,
 Carnegie Mellon University). Gaussian is a federally registered
 trademark of Gaussian, Inc.
  
 This software contains proprietary and confidential information,
 including trade secrets, belonging to Gaussian, Inc.
  
 This software is provided under written license and may be
 used, copied, transmitted, or stored only in accord with that
 written license.
  
 The following legend is applicable only to US Government
 contracts under FAR:
  
                    RESTRICTED RIGHTS LEGEND
  
 Use, reproduction and disclosure by the US Government is
 subject to restrictions as set forth in subparagraphs (a)
 and (c) of the Commercial Computer Software - Restricted
 Rights clause in FAR 52.227-19.
  
 Gaussian, Inc.
 340 Quinnipiac St., Bldg. 40, Wallingford CT 06492
  
  
 ---------------------------------------------------------------
 Warning -- This program may not be used in any manner that
 competes with the business of Gaussian, Inc. or will provide
 assistance to any competitor of Gaussian, Inc.  The licensee
 of this program is prohibited from giving any competitor of
 Gaussian, Inc. access to this program.  By using this program,
 the user acknowledges that Gaussian, Inc. is engaged in the
 business of creating and licensing software in the field of
 computational chemistry and represents and warrants to the
 licensee that it is not a competitor of Gaussian, Inc. and that
 it will not use this program in any manner prohibited above.
 ---------------------------------------------------------------
  

 Cite this work as:
 Gaussian 16, Revision B.01,
 M. J. Frisch, G. W. Trucks, H. B. Schlegel, G. E. Scuseria, 
 M. A. Robb, J. R. Cheeseman, G. Scalmani, V. Barone, 
 G. A. Petersson, H. Nakatsuji, X. Li, M. Caricato, A. V. Marenich, 
 J. Bloino, B. G. Janesko, R. Gomperts, B. Mennucci, H. P. Hratchian, 
 J. V. Ortiz, A. F. Izmaylov, J. L. Sonnenberg, D. Williams-Young, 
 F. Ding, F. Lipparini, F. Egidi, J. Goings, B. Peng, A. Petrone, 
 T. Henderson, D. Ranasinghe, V. G. Zakrzewski, J. Gao, N. Rega, 
 G. Zheng, W. Liang, M. Hada, M. Ehara, K. Toyota, R. Fukuda, 
 J. Hasegawa, M. Ishida, T. Nakajima, Y. Honda, O. Kitao, H. Nakai, 
 T. Vreven, K. Throssell, J. A. Montgomery, Jr., J. E. Peralta, 
 F. Ogliaro, M. J. Bearpark, J. J. Heyd, E. N. Brothers, K. N. Kudin, 
 V. N. Staroverov, T. A. Keith, R. Kobayashi, J. Normand, 
 K. Raghavachari, A. P. Rendell, J. C. Burant, S. S. Iyengar, 
 J. Tomasi, M. Cossi, J. M. Millam, M. Klene, C. Adamo, R. Cammi, 
 J. W. Ochterski, R. L. Martin, K. Morokuma, O. Farkas, 
 J. B. Foresman, and D. J. Fox, Gaussian, Inc., Wallingford CT, 2016.
 
 ******************************************
 Gaussian 16:  EM64L-G16RevB.01 20-Dec-2017
                26-Mar-2019 
 ******************************************
 %Chk=Benceno.chk
 ------------------------
 #p B3LYP/6-31+G(d,p) Opt
 ------------------------
 1/18=20,19=15,26=3,38=1/1,3;
 2/9=110,12=2,17=6,18=5,40=1/2;
 3/5=1,6=6,7=111,11=2,25=1,30=1,71=1,74=-5/1,2,3;
 4//1;
 5/5=2,38=5/2;
 6/7=2,8=2,9=2,10=2,28=1/1;
 7//1,2,3,16;
 1/18=20,19=15,26=3/3(2);
 2/9=110/2;
 99//99;
 2/9=110/2;
 3/5=1,6=6,7=111,11=2,25=1,30=1,71=1,74=-5/1,2,3;
 4/5=5,16=3,69=1/1;
 5/5=2,38=5/2;
 7//1,2,3,16;
 1/18=20,19=15,26=3/3(-5);
 2/9=110/2;
 6/7=2,8=2,9=2,10=2,19=2,28=1/1;
 99/9=1/99;
 Leave Link    1 at Tue Mar 26 11:35:17 2019, MaxMem=           0 cpu:               0.0 elap:               0.0
 (Enter /opt/g16/l101.exe)
 -------
 Benceno
 -------
 Symbolic Z-matrix:
 Charge =  0 Multiplicity = 1
 C                    -3.44981   2.92066   0. 
 C                    -3.46747   1.52173   0. 
 C                    -2.22946   3.60482   0. 
 C                    -1.02679   2.89006   0. 
 C                    -1.04445   1.49113   0. 
 C                    -2.2648    0.80696   0. 
 H                    -4.38023   3.47362   0. 
 H                    -2.21579   4.68708   0. 
 H                    -2.27846  -0.27529   0. 
 H                    -4.41157   0.99244   0. 
 H                    -0.08269   3.41935   0. 
 H                    -0.11403   0.93816   0. 
 
 ITRead=  0  0  0  0  0  0  0  0  0  0  0  0
 MicOpt= -1 -1 -1 -1 -1 -1 -1 -1 -1 -1 -1 -1
 NAtoms=     12 NQM=       12 NQMF=       0 NMMI=      0 NMMIF=      0
                NMic=       0 NMicF=      0.
                    Isotopes and Nuclear Properties:
 (Nuclear quadrupole moments (NQMom) in fm**2, nuclear magnetic moments (NMagM)
  in nuclear magnetons)

  Atom         1           2           3           4           5           6           7           8           9          10
 IAtWgt=          12          12          12          12          12          12           1           1           1           1
 AtmWgt=  12.0000000  12.0000000  12.0000000  12.0000000  12.0000000  12.0000000   1.0078250   1.0078250   1.0078250   1.0078250
 NucSpn=           0           0           0           0           0           0           1           1           1           1
 AtZEff=  -0.0000000  -0.0000000  -0.0000000  -0.0000000  -0.0000000  -0.0000000  -0.0000000  -0.0000000  -0.0000000  -0.0000000
 NQMom=    0.0000000   0.0000000   0.0000000   0.0000000   0.0000000   0.0000000   0.0000000   0.0000000   0.0000000   0.0000000
 NMagM=    0.0000000   0.0000000   0.0000000   0.0000000   0.0000000   0.0000000   2.7928460   2.7928460   2.7928460   2.7928460
 AtZNuc=   6.0000000   6.0000000   6.0000000   6.0000000   6.0000000   6.0000000   1.0000000   1.0000000   1.0000000   1.0000000

  Atom        11          12
 IAtWgt=           1           1
 AtmWgt=   1.0078250   1.0078250
 NucSpn=           1           1
 AtZEff=  -0.0000000  -0.0000000
 NQMom=    0.0000000   0.0000000
 NMagM=    2.7928460   2.7928460
 AtZNuc=   1.0000000   1.0000000
 Leave Link  101 at Tue Mar 26 11:35:18 2019, MaxMem=   104857600 cpu:               0.3 elap:               0.3
 (Enter /opt/g16/l103.exe)

 GradGradGradGradGradGradGradGradGradGradGradGradGradGradGradGradGradGrad
 Berny optimization.
 Initialization pass.
                           ----------------------------
                           !    Initial Parameters    !
                           ! (Angstroms and Degrees)  !
 --------------------------                            --------------------------
 ! Name  Definition              Value          Derivative Info.                !
 --------------------------------------------------------------------------------
 ! R1    R(1,2)                  1.399          estimate D2E/DX2                !
 ! R2    R(1,3)                  1.399          estimate D2E/DX2                !
 ! R3    R(1,7)                  1.0823         estimate D2E/DX2                !
 ! R4    R(2,6)                  1.399          estimate D2E/DX2                !
 ! R5    R(2,10)                 1.0823         estimate D2E/DX2                !
 ! R6    R(3,4)                  1.399          estimate D2E/DX2                !
 ! R7    R(3,8)                  1.0823         estimate D2E/DX2                !
 ! R8    R(4,5)                  1.399          estimate D2E/DX2                !
 ! R9    R(4,11)                 1.0823         estimate D2E/DX2                !
 ! R10   R(5,6)                  1.3991         estimate D2E/DX2                !
 ! R11   R(5,12)                 1.0823         estimate D2E/DX2                !
 ! R12   R(6,9)                  1.0823         estimate D2E/DX2                !
 ! A1    A(2,1,3)              119.9994         estimate D2E/DX2                !
 ! A2    A(2,1,7)              120.0003         estimate D2E/DX2                !
 ! A3    A(3,1,7)              120.0003         estimate D2E/DX2                !
 ! A4    A(1,2,6)              120.0006         estimate D2E/DX2                !
 ! A5    A(1,2,10)             119.9995         estimate D2E/DX2                !
 ! A6    A(6,2,10)             119.9999         estimate D2E/DX2                !
 ! A7    A(1,3,4)              120.0004         estimate D2E/DX2                !
 ! A8    A(1,3,8)              119.9998         estimate D2E/DX2                !
 ! A9    A(4,3,8)              119.9998         estimate D2E/DX2                !
 ! A10   A(3,4,5)              120.0002         estimate D2E/DX2                !
 ! A11   A(3,4,11)             120.0003         estimate D2E/DX2                !
 ! A12   A(5,4,11)             119.9995         estimate D2E/DX2                !
 ! A13   A(4,5,6)              119.9997         estimate D2E/DX2                !
 ! A14   A(4,5,12)             120.0007         estimate D2E/DX2                !
 ! A15   A(6,5,12)             119.9995         estimate D2E/DX2                !
 ! A16   A(2,6,5)              119.9997         estimate D2E/DX2                !
 ! A17   A(2,6,9)              120.0007         estimate D2E/DX2                !
 ! A18   A(5,6,9)              119.9996         estimate D2E/DX2                !
 ! D1    D(3,1,2,6)              0.0            estimate D2E/DX2                !
 ! D2    D(3,1,2,10)           180.0            estimate D2E/DX2                !
 ! D3    D(7,1,2,6)            180.0            estimate D2E/DX2                !
 ! D4    D(7,1,2,10)             0.0            estimate D2E/DX2                !
 ! D5    D(2,1,3,4)              0.0            estimate D2E/DX2                !
 ! D6    D(2,1,3,8)            180.0            estimate D2E/DX2                !
 ! D7    D(7,1,3,4)            180.0            estimate D2E/DX2                !
 ! D8    D(7,1,3,8)              0.0            estimate D2E/DX2                !
 ! D9    D(1,2,6,5)              0.0            estimate D2E/DX2                !
 ! D10   D(1,2,6,9)            180.0            estimate D2E/DX2                !
 ! D11   D(10,2,6,5)           180.0            estimate D2E/DX2                !
 ! D12   D(10,2,6,9)             0.0            estimate D2E/DX2                !
 ! D13   D(1,3,4,5)              0.0            estimate D2E/DX2                !
 ! D14   D(1,3,4,11)           180.0            estimate D2E/DX2                !
 ! D15   D(8,3,4,5)            180.0            estimate D2E/DX2                !
 ! D16   D(8,3,4,11)             0.0            estimate D2E/DX2                !
 ! D17   D(3,4,5,6)              0.0            estimate D2E/DX2                !
 ! D18   D(3,4,5,12)           180.0            estimate D2E/DX2                !
 ! D19   D(11,4,5,6)           180.0            estimate D2E/DX2                !
 ! D20   D(11,4,5,12)            0.0            estimate D2E/DX2                !
 ! D21   D(4,5,6,2)              0.0            estimate D2E/DX2                !
 ! D22   D(4,5,6,9)            180.0            estimate D2E/DX2                !
 ! D23   D(12,5,6,2)           180.0            estimate D2E/DX2                !
 ! D24   D(12,5,6,9)             0.0            estimate D2E/DX2                !
 --------------------------------------------------------------------------------
 Trust Radius=3.00D-01 FncErr=1.00D-07 GrdErr=1.00D-06 EigMax=2.50D+02 EigMin=1.00D-04
 Number of steps in this run=     64 maximum allowed number of steps=    100.
 GradGradGradGradGradGradGradGradGradGradGradGradGradGradGradGradGradGrad

 Leave Link  103 at Tue Mar 26 11:35:18 2019, MaxMem=   104857600 cpu:               0.0 elap:               0.0
 (Enter /opt/g16/l202.exe)
                          Input orientation:                          
 ---------------------------------------------------------------------
 Center     Atomic      Atomic             Coordinates (Angstroms)
 Number     Number       Type             X           Y           Z
 ---------------------------------------------------------------------
      1          6           0       -3.449810    2.920660    0.000000
      2          6           0       -3.467470    1.521730    0.000000
      3          6           0       -2.229460    3.604820    0.000000
      4          6           0       -1.026790    2.890060    0.000000
      5          6           0       -1.044450    1.491130    0.000000
      6          6           0       -2.264800    0.806960    0.000000
      7          1           0       -4.380230    3.473620    0.000000
      8          1           0       -2.215790    4.687080    0.000000
      9          1           0       -2.278460   -0.275290    0.000000
     10          1           0       -4.411570    0.992440    0.000000
     11          1           0       -0.082690    3.419350    0.000000
     12          1           0       -0.114030    0.938160    0.000000
 ---------------------------------------------------------------------
                    Distance matrix (angstroms):
                    1          2          3          4          5
     1  C    0.000000
     2  C    1.399041   0.000000
     3  C    1.399046   2.423207   0.000000
     4  C    2.423213   2.798079   1.399034   0.000000
     5  C    2.798091   2.423213   2.423207   1.399041   0.000000
     6  C    2.423216   1.399039   2.798083   2.423216   1.399051
     7  H    1.082334   2.154763   2.154768   3.403836   3.880425
     8  H    2.154773   3.403842   1.082346   2.154763   3.403841
     9  H    3.403844   2.154768   3.880419   3.403839   2.154767
    10  H    2.154766   1.082346   3.403841   3.880425   3.403849
    11  H    3.403849   3.880425   2.154767   1.082346   2.154766
    12  H    3.880430   3.403838   3.403839   2.154772   1.082339
                    6          7          8          9         10
     6  C    0.000000
     7  H    3.403839   0.000000
     8  H    3.880430   2.481388   0.000000
     9  H    1.082336   4.297879   4.962766   0.000000
    10  H    2.154768   2.481378   4.297885   2.481390   0.000000
    11  H    3.403849   4.297883   2.481382   4.297880   4.962771
    12  H    2.154768   4.962763   4.297883   2.481374   4.297883
                   11         12
    11  H    0.000000
    12  H    2.481388   0.000000
 This structure is nearly, but not quite of a higher symmetry.
 Consider Symm=Loose if the higher symmetry is desired.
 Stoichiometry    C6H6
 Framework group  CS[SG(C6H6)]
 Deg. of freedom    21
 Full point group                 CS      NOp   2
 Largest Abelian subgroup         CS      NOp   2
 Largest concise Abelian subgroup C1      NOp   1
                         Standard orientation:                         
 ---------------------------------------------------------------------
 Center     Atomic      Atomic             Coordinates (Angstroms)
 Number     Number       Type             X           Y           Z
 ---------------------------------------------------------------------
      1          6           0        1.211607   -0.699528    0.000000
      2          6           0        1.211607    0.699513    0.000000
      3          6           0       -0.000010   -1.399038    0.000000
      4          6           0       -1.211606   -0.699516    0.000000
      5          6           0       -1.211606    0.699525    0.000000
      6          6           0        0.000010    1.399045    0.000000
      7          1           0        2.148933   -1.240700    0.000000
      8          1           0       -0.000017   -2.481385    0.000000
      9          1           0        0.000008    2.481381    0.000000
     10          1           0        2.148950    1.240678    0.000000
     11          1           0       -2.148950   -1.240682    0.000000
     12          1           0       -2.148932    1.240706    0.000000
 ---------------------------------------------------------------------
 Rotational constants (GHZ):           5.6733324           5.6733235           2.8366640
 Leave Link  202 at Tue Mar 26 11:35:18 2019, MaxMem=   104857600 cpu:               0.0 elap:               0.0
 (Enter /opt/g16/l301.exe)
 Standard basis: 6-31+G(d,p) (6D, 7F)
 Ernie: Thresh=  0.10000D-02 Tol=  0.10000D-05 Strict=F.
 There are   108 symmetry adapted cartesian basis functions of A'  symmetry.
 There are    36 symmetry adapted cartesian basis functions of A"  symmetry.
 There are   108 symmetry adapted basis functions of A'  symmetry.
 There are    36 symmetry adapted basis functions of A"  symmetry.
   144 basis functions,   234 primitive gaussians,   144 cartesian basis functions
    21 alpha electrons       21 beta electrons
       nuclear repulsion energy       203.0193759698 Hartrees.
 IExCor=  402 DFT=T Ex+Corr=B3LYP ExCW=0 ScaHFX=  0.200000
 ScaDFX=  0.800000  0.720000  1.000000  0.810000 ScalE2=  1.000000  1.000000
 IRadAn=      5 IRanWt=     -1 IRanGd=            0 ICorTp=0 IEmpDi=  4
 NAtoms=   12 NActive=   12 NUniq=   12 SFac= 1.00D+00 NAtFMM=   60 NAOKFM=F Big=F
 Integral buffers will be    131072 words long.
 Raffenetti 2 integral format.
 Two-electron integral symmetry is turned on.
 Leave Link  301 at Tue Mar 26 11:35:18 2019, MaxMem=   104857600 cpu:               0.1 elap:               0.1
 (Enter /opt/g16/l302.exe)
 NPDir=0 NMtPBC=     1 NCelOv=     1 NCel=       1 NClECP=     1 NCelD=      1
         NCelK=      1 NCelE2=     1 NClLst=     1 CellRange=     0.0.
 One-electron integrals computed using PRISM.
 One-electron integral symmetry used in STVInt
 NBasis=   144 RedAO= T EigKep=  6.53D-06  NBF=   108    36
 NBsUse=   144 1.00D-06 EigRej= -1.00D+00 NBFU=   108    36
 Precomputing XC quadrature grid using
 IXCGrd= 4 IRadAn=           5 IRanWt=          -1 IRanGd=           0 AccXCQ= 0.00D+00.
 Generated NRdTot=       0 NPtTot=           0 NUsed=           0 NTot=          32
 NSgBfM=   144   144   144   144   144 MxSgAt=    12 MxSgA2=    12.
 Leave Link  302 at Tue Mar 26 11:35:18 2019, MaxMem=   104857600 cpu:               0.5 elap:               0.5
 (Enter /opt/g16/l303.exe)
 DipDrv:  MaxL=1.
 Leave Link  303 at Tue Mar 26 11:35:18 2019, MaxMem=   104857600 cpu:               0.0 elap:               0.0
 (Enter /opt/g16/l401.exe)
 ExpMin= 4.38D-02 ExpMax= 3.05D+03 ExpMxC= 4.57D+02 IAcc=3 IRadAn=         5 AccDes= 0.00D+00
 Harris functional with IExCor=  402 and IRadAn=       5 diagonalized for initial guess.
 HarFok:  IExCor=  402 AccDes= 0.00D+00 IRadAn=         5 IDoV= 1 UseB2=F ITyADJ=14
 ICtDFT=  3500011 ScaDFX=  1.000000  1.000000  1.000000  1.000000
 FoFCou: FMM=F IPFlag=           0 FMFlag=      100000 FMFlg1=           0
         NFxFlg=           0 DoJE=T BraDBF=F KetDBF=T FulRan=T
         wScrn=  0.000000 ICntrl=       500 IOpCl=  0 I1Cent=   200000004 NGrid=           0
         NMat0=    1 NMatS0=      1 NMatT0=    0 NMatD0=    1 NMtDS0=    0 NMtDT0=    0
 Petite list used in FoFCou.
 Harris En= -232.292806116183    
 JPrj=0 DoOrth=F DoCkMO=F.
 Initial guess orbital symmetries:
       Occupied  (A') (A') (A') (A') (A') (A') (A') (A') (A') (A')
                 (A') (A') (A') (A') (A') (A') (A') (A') (A") (A")
                 (A")
       Virtual   (A") (A") (A') (A') (A') (A") (A') (A') (A') (A")
                 (A') (A") (A") (A') (A') (A') (A') (A') (A") (A")
                 (A') (A') (A') (A') (A') (A") (A') (A') (A') (A')
                 (A') (A') (A') (A') (A') (A') (A') (A') (A') (A')
                 (A') (A") (A') (A') (A") (A") (A") (A") (A') (A')
                 (A") (A') (A') (A') (A') (A') (A') (A') (A') (A')
                 (A') (A') (A') (A') (A') (A") (A") (A') (A") (A")
                 (A") (A") (A') (A') (A') (A') (A') (A') (A') (A')
                 (A") (A") (A') (A') (A") (A') (A') (A") (A") (A')
                 (A') (A") (A') (A") (A") (A') (A') (A') (A') (A")
                 (A") (A') (A") (A') (A") (A') (A') (A') (A') (A')
                 (A') (A') (A') (A') (A') (A') (A') (A') (A') (A')
                 (A') (A') (A')
 The electronic state of the initial guess is 1-A'.
 Leave Link  401 at Tue Mar 26 11:35:22 2019, MaxMem=   104857600 cpu:               3.2 elap:               3.2
 (Enter /opt/g16/l502.exe)
 Keep R1 ints in memory in symmetry-blocked form, NReq=83553999.
 FoFCou: FMM=F IPFlag=           0 FMFlag=           0 FMFlg1=           0
         NFxFlg=           0 DoJE=F BraDBF=F KetDBF=F FulRan=T
         wScrn=  0.000000 ICntrl=       600 IOpCl=  0 I1Cent=           0 NGrid=           0
         NMat0=    1 NMatS0=  10440 NMatT0=    0 NMatD0=    1 NMtDS0=    0 NMtDT0=    0
 Petite list used in FoFCou.
 Closed shell SCF:
 Using DIIS extrapolation, IDIIS=  1040.
 NGot=   104857600 LenX=    75762758 LenY=    75741581
 Requested convergence on RMS density matrix=1.00D-08 within 128 cycles.
 Requested convergence on MAX density matrix=1.00D-06.
 Requested convergence on             energy=1.00D-06.
 No special actions if energy rises.

 Cycle   1  Pass 1  IDiag  1:
 E= -232.114531864273    
 DIIS: error= 3.19D-02 at cycle   1 NSaved=   1.
 NSaved= 1 IEnMin= 1 EnMin= -232.114531864273     IErMin= 1 ErrMin= 3.19D-02
 ErrMax= 3.19D-02  0.00D+00 EMaxC= 1.00D-01 BMatC= 1.31D-01 BMatP= 1.31D-01
 IDIUse=3 WtCom= 6.81D-01 WtEn= 3.19D-01
 Coeff-Com:  0.100D+01
 Coeff-En:   0.100D+01
 Coeff:      0.100D+01
 Gap=     0.181 Goal=   None    Shift=    0.000
 GapD=    0.181 DampG=1.000 DampE=0.500 DampFc=0.5000 IDamp=-1.
 Damping current iteration by 5.00D-01
 RMSDP=9.16D-03 MaxDP=9.38D-02              OVMax= 1.83D-01

 Cycle   2  Pass 1  IDiag  1:
 E= -232.181099709330     Delta-E=       -0.066567845057 Rises=F Damp=T
 DIIS: error= 8.67D-03 at cycle   2 NSaved=   2.
 NSaved= 2 IEnMin= 2 EnMin= -232.181099709330     IErMin= 2 ErrMin= 8.67D-03
 ErrMax= 8.67D-03  0.00D+00 EMaxC= 1.00D-01 BMatC= 7.88D-03 BMatP= 1.31D-01
 IDIUse=3 WtCom= 9.13D-01 WtEn= 8.67D-02
 Coeff-Com:  0.509D-01 0.949D+00
 Coeff-En:   0.111D+00 0.889D+00
 Coeff:      0.561D-01 0.944D+00
 Gap=     0.262 Goal=   None    Shift=    0.000
 RMSDP=3.22D-03 MaxDP=8.26D-02 DE=-6.66D-02 OVMax= 1.04D-01

 Cycle   3  Pass 1  IDiag  1:
 E= -232.266838176948     Delta-E=       -0.085738467619 Rises=F Damp=F
 DIIS: error= 3.94D-03 at cycle   3 NSaved=   3.
 NSaved= 3 IEnMin= 3 EnMin= -232.266838176948     IErMin= 3 ErrMin= 3.94D-03
 ErrMax= 3.94D-03  0.00D+00 EMaxC= 1.00D-01 BMatC= 1.56D-03 BMatP= 7.88D-03
 IDIUse=3 WtCom= 9.61D-01 WtEn= 3.94D-02
 Coeff-Com: -0.404D-01 0.264D+00 0.776D+00
 Coeff-En:   0.000D+00 0.000D+00 0.100D+01
 Coeff:     -0.388D-01 0.254D+00 0.785D+00
 Gap=     0.242 Goal=   None    Shift=    0.000
 RMSDP=1.27D-03 MaxDP=2.81D-02 DE=-8.57D-02 OVMax= 9.23D-03

 Cycle   4  Pass 1  IDiag  1:
 E= -232.268289175843     Delta-E=       -0.001450998895 Rises=F Damp=F
 DIIS: error= 5.30D-04 at cycle   4 NSaved=   4.
 NSaved= 4 IEnMin= 4 EnMin= -232.268289175843     IErMin= 4 ErrMin= 5.30D-04
 ErrMax= 5.30D-04  0.00D+00 EMaxC= 1.00D-01 BMatC= 3.41D-05 BMatP= 1.56D-03
 IDIUse=3 WtCom= 9.95D-01 WtEn= 5.30D-03
 Coeff-Com: -0.132D-01 0.253D-01 0.169D+00 0.819D+00
 Coeff-En:   0.000D+00 0.000D+00 0.000D+00 0.100D+01
 Coeff:     -0.132D-01 0.252D-01 0.168D+00 0.820D+00
 Gap=     0.242 Goal=   None    Shift=    0.000
 RMSDP=2.07D-04 MaxDP=4.54D-03 DE=-1.45D-03 OVMax= 1.17D-03

 Cycle   5  Pass 1  IDiag  1:
 E= -232.268322014103     Delta-E=       -0.000032838260 Rises=F Damp=F
 DIIS: error= 1.68D-05 at cycle   5 NSaved=   5.
 NSaved= 5 IEnMin= 5 EnMin= -232.268322014103     IErMin= 5 ErrMin= 1.68D-05
 ErrMax= 1.68D-05  0.00D+00 EMaxC= 1.00D-01 BMatC= 5.19D-08 BMatP= 3.41D-05
 IDIUse=1 WtCom= 1.00D+00 WtEn= 0.00D+00
 Coeff-Com: -0.740D-03 0.238D-03 0.523D-02 0.544D-01 0.941D+00
 Coeff:     -0.740D-03 0.238D-03 0.523D-02 0.544D-01 0.941D+00
 Gap=     0.242 Goal=   None    Shift=    0.000
 RMSDP=1.45D-05 MaxDP=3.23D-04 DE=-3.28D-05 OVMax= 4.00D-05

 Cycle   6  Pass 1  IDiag  1:
 E= -232.268322059162     Delta-E=       -0.000000045059 Rises=F Damp=F
 DIIS: error= 2.81D-06 at cycle   6 NSaved=   6.
 NSaved= 6 IEnMin= 6 EnMin= -232.268322059162     IErMin= 6 ErrMin= 2.81D-06
 ErrMax= 2.81D-06  0.00D+00 EMaxC= 1.00D-01 BMatC= 6.43D-10 BMatP= 5.19D-08
 IDIUse=1 WtCom= 1.00D+00 WtEn= 0.00D+00
 Coeff-Com:  0.496D-04-0.103D-03-0.128D-02-0.397D-02-0.335D-03 0.101D+01
 Coeff:      0.496D-04-0.103D-03-0.128D-02-0.397D-02-0.335D-03 0.101D+01
 Gap=     0.242 Goal=   None    Shift=    0.000
 RMSDP=5.38D-07 MaxDP=6.37D-06 DE=-4.51D-08 OVMax= 9.95D-06

 Cycle   7  Pass 1  IDiag  1:
 E= -232.268322059674     Delta-E=       -0.000000000512 Rises=F Damp=F
 DIIS: error= 1.84D-06 at cycle   7 NSaved=   7.
 NSaved= 7 IEnMin= 7 EnMin= -232.268322059674     IErMin= 7 ErrMin= 1.84D-06
 ErrMax= 1.84D-06  0.00D+00 EMaxC= 1.00D-01 BMatC= 1.64D-10 BMatP= 6.43D-10
 IDIUse=1 WtCom= 1.00D+00 WtEn= 0.00D+00
 Coeff-Com:  0.292D-04-0.571D-04-0.735D-03-0.242D-02-0.411D-02 0.557D+00
 Coeff-Com:  0.450D+00
 Coeff:      0.292D-04-0.571D-04-0.735D-03-0.242D-02-0.411D-02 0.557D+00
 Coeff:      0.450D+00
 Gap=     0.242 Goal=   None    Shift=    0.000
 RMSDP=1.71D-07 MaxDP=3.04D-06 DE=-5.12D-10 OVMax= 7.81D-06

 Cycle   8  Pass 1  IDiag  1:
 E= -232.268322059847     Delta-E=       -0.000000000174 Rises=F Damp=F
 DIIS: error= 6.16D-07 at cycle   8 NSaved=   8.
 NSaved= 8 IEnMin= 8 EnMin= -232.268322059847     IErMin= 8 ErrMin= 6.16D-07
 ErrMax= 6.16D-07  0.00D+00 EMaxC= 1.00D-01 BMatC= 1.80D-11 BMatP= 1.64D-10
 IDIUse=1 WtCom= 1.00D+00 WtEn= 0.00D+00
 Coeff-Com:  0.356D-06-0.102D-05-0.430D-04-0.162D-03-0.143D-02 0.193D-01
 Coeff-Com:  0.249D+00 0.733D+00
 Coeff:      0.356D-06-0.102D-05-0.430D-04-0.162D-03-0.143D-02 0.193D-01
 Coeff:      0.249D+00 0.733D+00
 Gap=     0.242 Goal=   None    Shift=    0.000
 RMSDP=5.10D-08 MaxDP=9.98D-07 DE=-1.74D-10 OVMax= 2.05D-06

 Cycle   9  Pass 1  IDiag  1:
 E= -232.268322059868     Delta-E=       -0.000000000021 Rises=F Damp=F
 DIIS: error= 6.05D-08 at cycle   9 NSaved=   9.
 NSaved= 9 IEnMin= 9 EnMin= -232.268322059868     IErMin= 9 ErrMin= 6.05D-08
 ErrMax= 6.05D-08  0.00D+00 EMaxC= 1.00D-01 BMatC= 5.02D-13 BMatP= 1.80D-11
 IDIUse=1 WtCom= 1.00D+00 WtEn= 0.00D+00
 Coeff-Com: -0.168D-06 0.192D-06-0.147D-04-0.610D-04-0.757D-03 0.374D-02
 Coeff-Com:  0.134D+00 0.411D+00 0.452D+00
 Coeff:     -0.168D-06 0.192D-06-0.147D-04-0.610D-04-0.757D-03 0.374D-02
 Coeff:      0.134D+00 0.411D+00 0.452D+00
 Gap=     0.242 Goal=   None    Shift=    0.000
 RMSDP=6.06D-09 MaxDP=1.65D-07 DE=-2.06D-11 OVMax= 2.33D-07

 SCF Done:  E(RB3LYP) =  -232.268322060     A.U. after    9 cycles
            NFock=  9  Conv=0.61D-08     -V/T= 2.0101
 KE= 2.299359466504D+02 PE=-9.430152130880D+02 EE= 2.777915684079D+02
 Leave Link  502 at Tue Mar 26 11:36:09 2019, MaxMem=   104857600 cpu:              47.1 elap:              47.2
 (Enter /opt/g16/l601.exe)
 Copying SCF densities to generalized density rwf, IOpCl= 0 IROHF=0.

 **********************************************************************

            Population analysis using the SCF Density.

 **********************************************************************

 Orbital symmetries:
       Occupied  (A') (A') (A') (A') (A') (A') (A') (A') (A') (A')
                 (A') (A') (A') (A') (A') (A') (A") (A') (A') (A")
                 (A")
       Virtual   (A") (A") (A') (A') (A') (A') (A') (A") (A') (A')
                 (A") (A") (A') (A") (A") (A") (A') (A') (A') (A')
                 (A') (A') (A') (A") (A') (A') (A') (A') (A') (A')
                 (A') (A') (A') (A') (A') (A') (A') (A') (A') (A')
                 (A') (A") (A") (A") (A') (A') (A") (A") (A') (A')
                 (A") (A') (A') (A') (A') (A') (A') (A') (A') (A')
                 (A') (A') (A') (A') (A') (A") (A") (A') (A") (A")
                 (A") (A") (A') (A') (A') (A') (A') (A') (A') (A')
                 (A") (A") (A') (A') (A") (A') (A') (A") (A") (A")
                 (A') (A') (A') (A") (A") (A') (A') (A') (A') (A")
                 (A") (A') (A') (A") (A") (A') (A') (A') (A') (A')
                 (A') (A') (A') (A') (A') (A') (A') (A') (A') (A')
                 (A') (A') (A')
 The electronic state is 1-A'.
 Alpha  occ. eigenvalues --  -10.19844 -10.19817 -10.19817 -10.19762 -10.19762
 Alpha  occ. eigenvalues --  -10.19736  -0.85663  -0.74997  -0.74996  -0.60714
 Alpha  occ. eigenvalues --   -0.60714  -0.52718  -0.46780  -0.44847  -0.42622
 Alpha  occ. eigenvalues --   -0.42621  -0.36939  -0.34929  -0.34929  -0.25744
 Alpha  occ. eigenvalues --   -0.25744
 Alpha virt. eigenvalues --   -0.01556  -0.01555   0.00876   0.02578   0.02578
 Alpha virt. eigenvalues --    0.04550   0.04550   0.06662   0.07804   0.07975
 Alpha virt. eigenvalues --    0.09209   0.09209   0.09919   0.12469   0.14277
 Alpha virt. eigenvalues --    0.14277   0.14428   0.14428   0.15527   0.15527
 Alpha virt. eigenvalues --    0.19670   0.19670   0.19787   0.20480   0.21141
 Alpha virt. eigenvalues --    0.21141   0.23585   0.24569   0.24569   0.26630
 Alpha virt. eigenvalues --    0.27995   0.27996   0.32618   0.34653   0.34654
 Alpha virt. eigenvalues --    0.34873   0.34874   0.56163   0.56814   0.60054
 Alpha virt. eigenvalues --    0.61873   0.65891   0.71721   0.71721   0.71831
 Alpha virt. eigenvalues --    0.71831   0.74629   0.74629   0.76659   0.76659
 Alpha virt. eigenvalues --    0.80025   0.82622   0.88319   0.91608   0.91608
 Alpha virt. eigenvalues --    0.95072   0.95072   0.97551   1.02486   1.07047
 Alpha virt. eigenvalues --    1.07047   1.12122   1.12122   1.16530   1.16530
 Alpha virt. eigenvalues --    1.25095   1.29502   1.30931   1.39649   1.39649
 Alpha virt. eigenvalues --    1.41806   1.41806   1.43248   1.43249   1.74406
 Alpha virt. eigenvalues --    1.78284   1.84718   1.88869   1.94719   1.94720
 Alpha virt. eigenvalues --    1.97968   1.97968   2.00103   2.00104   2.02509
 Alpha virt. eigenvalues --    2.07147   2.07147   2.28808   2.28809   2.36695
 Alpha virt. eigenvalues --    2.37877   2.37878   2.40683   2.41052   2.41053
 Alpha virt. eigenvalues --    2.46896   2.46897   2.51530   2.51531   2.59529
 Alpha virt. eigenvalues --    2.59529   2.61037   2.61448   2.64175   2.76599
 Alpha virt. eigenvalues --    2.81368   2.81369   3.05415   3.05415   3.18402
 Alpha virt. eigenvalues --    3.26381   3.28313   3.28315   3.38882   3.52849
 Alpha virt. eigenvalues --    3.52849   3.95046   4.27165   4.28573   4.28573
 Alpha virt. eigenvalues --    4.48556   4.48556   4.85139
          Condensed to atoms (all electrons):
               1          2          3          4          5          6
     1  C    4.926359   0.501745   0.501748  -0.024870  -0.064061  -0.024874
     2  C    0.501745   4.926384  -0.024889  -0.064065  -0.024887   0.501748
     3  C    0.501748  -0.024889   4.926395   0.501739  -0.024884  -0.064064
     4  C   -0.024870  -0.064065   0.501739   4.926374   0.501745  -0.024880
     5  C   -0.064061  -0.024887  -0.024884   0.501745   4.926376   0.501749
     6  C   -0.024874   0.501748  -0.064064  -0.024880   0.501749   4.926374
     7  H    0.260003   0.020362   0.020361   0.004076  -0.001330   0.004076
     8  H    0.020363   0.004076   0.259994   0.020367   0.004076  -0.001329
     9  H    0.004076   0.020362  -0.001330   0.004077   0.020362   0.260000
    10  H    0.020364   0.259996   0.004077  -0.001330   0.004076   0.020364
    11  H    0.004075  -0.001329   0.020367   0.259994   0.020365   0.004076
    12  H   -0.001330   0.004077   0.004076   0.020362   0.260001   0.020361
               7          8          9         10         11         12
     1  C    0.260003   0.020363   0.004076   0.020364   0.004075  -0.001330
     2  C    0.020362   0.004076   0.020362   0.259996  -0.001329   0.004077
     3  C    0.020361   0.259994  -0.001330   0.004077   0.020367   0.004076
     4  C    0.004076   0.020367   0.004077  -0.001330   0.259994   0.020362
     5  C   -0.001330   0.004076   0.020362   0.004076   0.020365   0.260001
     6  C    0.004076  -0.001329   0.260000   0.020364   0.004076   0.020361
     7  H    0.581468  -0.006149  -0.000162  -0.006149  -0.000162   0.000014
     8  H   -0.006149   0.581470   0.000014  -0.000162  -0.006149  -0.000162
     9  H   -0.000162   0.000014   0.581470  -0.006149  -0.000162  -0.006149
    10  H   -0.006149  -0.000162  -0.006149   0.581470   0.000014  -0.000162
    11  H   -0.000162  -0.006149  -0.000162   0.000014   0.581469  -0.006149
    12  H    0.000014  -0.000162  -0.006149  -0.000162  -0.006149   0.581468
 Mulliken charges:
               1
     1  C   -0.123598
     2  C   -0.123581
     3  C   -0.123588
     4  C   -0.123589
     5  C   -0.123589
     6  C   -0.123601
     7  H    0.123591
     8  H    0.123591
     9  H    0.123590
    10  H    0.123591
    11  H    0.123592
    12  H    0.123591
 Sum of Mulliken charges =  -0.00000
 Mulliken charges with hydrogens summed into heavy atoms:
               1
     1  C   -0.000007
     2  C    0.000010
     3  C    0.000002
     4  C    0.000002
     5  C    0.000002
     6  C   -0.000010
 Electronic spatial extent (au):  <R**2>=            461.4624
 Charge=             -0.0000 electrons
 Dipole moment (field-independent basis, Debye):
    X=              0.0000    Y=              0.0000    Z=              0.0000  Tot=              0.0000
 Quadrupole moment (field-independent basis, Debye-Ang):
   XX=            -32.2266   YY=            -32.2267   ZZ=            -40.3314
   XY=             -0.0001   XZ=              0.0000   YZ=              0.0000
 Traceless Quadrupole moment (field-independent basis, Debye-Ang):
   XX=              2.7016   YY=              2.7015   ZZ=             -5.4031
   XY=             -0.0001   XZ=              0.0000   YZ=              0.0000
 Octapole moment (field-independent basis, Debye-Ang**2):
  XXX=              0.0001  YYY=              0.0002  ZZZ=              0.0000  XYY=             -0.0001
  XXY=             -0.0001  XXZ=              0.0000  XZZ=              0.0000  YZZ=             -0.0000
  YYZ=              0.0000  XYZ=              0.0000
 Hexadecapole moment (field-independent basis, Debye-Ang**3):
 XXXX=           -280.4814 YYYY=           -280.4815 ZZZZ=            -52.1300 XXXY=             -0.0004
 XXXZ=              0.0000 YYYX=             -0.0004 YYYZ=              0.0000 ZZZX=              0.0000
 ZZZY=              0.0000 XXYY=            -93.4938 XXZZ=            -66.2541 YYZZ=            -66.2541
 XXYZ=              0.0000 YYXZ=              0.0000 ZZXY=             -0.0000
 N-N= 2.030193759698D+02 E-N=-9.430152130394D+02  KE= 2.299359466504D+02
 Symmetry A'   KE= 2.236998578974D+02
 Symmetry A"   KE= 6.236088753038D+00
 No NMR shielding tensors so no spin-rotation constants.
 Leave Link  601 at Tue Mar 26 11:36:09 2019, MaxMem=   104857600 cpu:               0.2 elap:               0.2
 (Enter /opt/g16/l701.exe)
 ... and contract with generalized density number  0.
 Compute integral first derivatives.
 Leave Link  701 at Tue Mar 26 11:36:09 2019, MaxMem=   104857600 cpu:               0.2 elap:               0.2
 (Enter /opt/g16/l702.exe)
 L702 exits ... SP integral derivatives will be done elsewhere.
 Leave Link  702 at Tue Mar 26 11:36:09 2019, MaxMem=   104857600 cpu:               0.0 elap:               0.0
 (Enter /opt/g16/l703.exe)
 Integral derivatives from FoFJK, PRISM(SPDF).
 Compute integral first derivatives, UseDBF=F ICtDFT=           0.
 Calling FoFJK, ICntrl=      2127 FMM=F ISym2X=1 I1Cent= 0 IOpClX= 0 NMat=1 NMatS=1 NMatT=0.
 FoFJK:  IHMeth= 1 ICntrl=    2127 DoSepK=F KAlg= 0 I1Cent=           0 FoldK=F
 IRaf=         0 NMat=       1 IRICut=       1 DoRegI=T DoRafI=F ISym2E= 1 IDoP0=0 IntGTp=1.
 FoFCou: FMM=F IPFlag=           0 FMFlag=      100000 FMFlg1=         800
         NFxFlg=           0 DoJE=F BraDBF=F KetDBF=F FulRan=T
         wScrn=  0.000000 ICntrl=      2127 IOpCl=  0 I1Cent=           0 NGrid=           0
         NMat0=    1 NMatS0=      1 NMatT0=    0 NMatD0=    1 NMtDS0=    0 NMtDT0=    0
 Petite list used in FoFCou.
 Leave Link  703 at Tue Mar 26 11:36:27 2019, MaxMem=   104857600 cpu:              17.7 elap:              17.7
 (Enter /opt/g16/l716.exe)
 Dipole        = 2.84779652D-07 2.07224742D-06 0.00000000D+00
 ***** Axes restored to original set *****
 -------------------------------------------------------------------
 Center     Atomic                   Forces (Hartrees/Bohr)
 Number     Number              X              Y              Z
 -------------------------------------------------------------------
      1        6           0.002923608   -0.001734691   -0.000000000
      2        6           0.002950316    0.001656058   -0.000000000
      3        6          -0.000050474   -0.003382450   -0.000000000
      4        6          -0.002948083   -0.001660680   -0.000000000
      5        6          -0.002922961    0.001728774   -0.000000000
      6        6           0.000051333    0.003396730   -0.000000000
      7        1          -0.002409860    0.001432505   -0.000000000
      8        1           0.000035184    0.002794749   -0.000000000
      9        1          -0.000036304   -0.002801358   -0.000000000
     10        1          -0.002438335   -0.001367596   -0.000000000
     11        1           0.002437995    0.001367775   -0.000000000
     12        1           0.002407579   -0.001429814   -0.000000000
 -------------------------------------------------------------------
 Cartesian Forces:  Max     0.003396730 RMS     0.001794748
 Leave Link  716 at Tue Mar 26 11:36:27 2019, MaxMem=   104857600 cpu:               0.0 elap:               0.0
 (Enter /opt/g16/l103.exe)

 GradGradGradGradGradGradGradGradGradGradGradGradGradGradGradGradGradGrad
 Berny optimization.
 FormGI is forming the generalized inverse of G from B-inverse, IUseBI=4.
 Internal  Forces:  Max     0.002803479 RMS     0.000953485
 Search for a local minimum.
 Step number   1 out of a maximum of   64
 All quantities printed in internal units (Hartrees-Bohrs-Radians)
 RMS Force = .95348D-03 SwitMx=.10000D-02 MixMth= 2
 Mixed Optimization -- En-DIIS/RFO-DIIS
 Second derivative matrix not updated -- first step.
 ITU=  0
     Eigenvalues ---    0.02101   0.02101   0.02101   0.02101   0.02101
     Eigenvalues ---    0.02101   0.02101   0.02101   0.02101   0.16000
     Eigenvalues ---    0.16000   0.16000   0.16000   0.16000   0.16000
     Eigenvalues ---    0.22000   0.22000   0.22000   0.35712   0.35712
     Eigenvalues ---    0.35712   0.35713   0.35714   0.35714   0.41578
     Eigenvalues ---    0.41579   0.45779   0.45780   0.45780   0.45781
 RFO step:  Lambda=-1.36120607D-04 EMin= 2.10136135D-02
 Linear search not attempted -- first point.
 Iteration  1 RMS(Cart)=  0.00222244 RMS(Int)=  0.00000001
 Iteration  2 RMS(Cart)=  0.00000001 RMS(Int)=  0.00000000
 ITry= 1 IFail=0 DXMaxC= 6.54D-03 DCOld= 1.00D+10 DXMaxT= 3.00D-01 DXLimC= 3.00D+00 Rises=F
 ClnCor:  largest displacement from symmetrization is 3.78D-15 for atom     9.
 Variable       Old X    -DE/DX   Delta X   Delta X   Delta X     New X
                                 (Linear)    (Quad)   (Total)
    R1        2.64381  -0.00059   0.00000  -0.00129  -0.00129   2.64251
    R2        2.64381  -0.00059   0.00000  -0.00130  -0.00130   2.64252
    R3        2.04531   0.00280   0.00000   0.00785   0.00785   2.05316
    R4        2.64380  -0.00059   0.00000  -0.00129  -0.00129   2.64251
    R5        2.04534   0.00280   0.00000   0.00783   0.00783   2.05316
    R6        2.64379  -0.00059   0.00000  -0.00128  -0.00128   2.64251
    R7        2.04534   0.00279   0.00000   0.00782   0.00782   2.05316
    R8        2.64381  -0.00059   0.00000  -0.00129  -0.00129   2.64251
    R9        2.04534   0.00280   0.00000   0.00782   0.00782   2.05316
   R10        2.64382  -0.00060   0.00000  -0.00131  -0.00131   2.64252
   R11        2.04532   0.00280   0.00000   0.00784   0.00784   2.05316
   R12        2.04532   0.00280   0.00000   0.00784   0.00784   2.05316
    A1        2.09438   0.00000   0.00000   0.00001   0.00001   2.09439
    A2        2.09440  -0.00000   0.00000  -0.00000  -0.00000   2.09440
    A3        2.09440  -0.00000   0.00000  -0.00001  -0.00001   2.09440
    A4        2.09441  -0.00000   0.00000  -0.00001  -0.00001   2.09440
    A5        2.09439   0.00000   0.00000   0.00001   0.00001   2.09439
    A6        2.09439   0.00000   0.00000   0.00000   0.00000   2.09439
    A7        2.09440  -0.00000   0.00000  -0.00001  -0.00001   2.09440
    A8        2.09439   0.00000   0.00000   0.00000   0.00000   2.09439
    A9        2.09439   0.00000   0.00000   0.00000   0.00000   2.09440
   A10        2.09440  -0.00000   0.00000  -0.00000  -0.00000   2.09440
   A11        2.09440  -0.00000   0.00000  -0.00000  -0.00000   2.09440
   A12        2.09439   0.00000   0.00000   0.00001   0.00001   2.09439
   A13        2.09439   0.00000   0.00000   0.00000   0.00000   2.09439
   A14        2.09441  -0.00000   0.00000  -0.00001  -0.00001   2.09440
   A15        2.09439   0.00000   0.00000   0.00000   0.00000   2.09439
   A16        2.09439   0.00000   0.00000   0.00000   0.00000   2.09439
   A17        2.09441  -0.00000   0.00000  -0.00001  -0.00001   2.09440
   A18        2.09439   0.00000   0.00000   0.00000   0.00000   2.09439
    D1        0.00000  -0.00000   0.00000   0.00000   0.00000   0.00000
    D2        3.14159   0.00000   0.00000   0.00000   0.00000   3.14159
    D3        3.14159   0.00000   0.00000   0.00000   0.00000   3.14159
    D4        0.00000   0.00000   0.00000   0.00000   0.00000   0.00000
    D5        0.00000   0.00000   0.00000  -0.00000   0.00000   0.00000
    D6        3.14159  -0.00000   0.00000  -0.00000   0.00000   3.14159
    D7        3.14159   0.00000   0.00000  -0.00000   0.00000   3.14159
    D8        0.00000  -0.00000   0.00000  -0.00000   0.00000   0.00000
    D9        0.00000   0.00000   0.00000   0.00000   0.00000   0.00000
   D10        3.14159  -0.00000   0.00000   0.00000   0.00000   3.14159
   D11        3.14159  -0.00000   0.00000   0.00000   0.00000   3.14159
   D12        0.00000  -0.00000   0.00000   0.00000   0.00000   0.00000
   D13        0.00000  -0.00000   0.00000  -0.00000   0.00000   0.00000
   D14        3.14159   0.00000   0.00000   0.00000   0.00000   3.14159
   D15        3.14159   0.00000   0.00000   0.00000   0.00000   3.14159
   D16        0.00000   0.00000   0.00000   0.00000   0.00000   0.00000
   D17        0.00000   0.00000   0.00000   0.00000   0.00000   0.00000
   D18        3.14159   0.00000   0.00000   0.00000   0.00000   3.14159
   D19        3.14159   0.00000   0.00000   0.00000   0.00000   3.14159
   D20        0.00000  -0.00000   0.00000  -0.00000   0.00000   0.00000
   D21        0.00000  -0.00000   0.00000  -0.00000   0.00000   0.00000
   D22        3.14159  -0.00000   0.00000  -0.00000   0.00000   3.14159
   D23        3.14159  -0.00000   0.00000  -0.00000   0.00000   3.14159
   D24        0.00000   0.00000   0.00000  -0.00000   0.00000   0.00000
         Item               Value     Threshold  Converged?
 Maximum Force            0.002803     0.000450     NO 
 RMS     Force            0.000953     0.000300     NO 
 Maximum Displacement     0.006544     0.001800     NO 
 RMS     Displacement     0.002222     0.001200     NO 
 Predicted change in Energy=-6.808605D-05
 Lowest energy point so far.  Saving SCF results.
 GradGradGradGradGradGradGradGradGradGradGradGradGradGradGradGradGradGrad

 Leave Link  103 at Tue Mar 26 11:36:27 2019, MaxMem=   104857600 cpu:               0.0 elap:               0.0
 (Enter /opt/g16/l202.exe)
                          Input orientation:                          
 ---------------------------------------------------------------------
 Center     Atomic      Atomic             Coordinates (Angstroms)
 Number     Number       Type             X           Y           Z
 ---------------------------------------------------------------------
      1          6           0       -3.449218    2.920311    0.000000
      2          6           0       -3.466875    1.522064    0.000000
      3          6           0       -2.229470    3.604140    0.000000
      4          6           0       -1.027383    2.889724    0.000000
      5          6           0       -1.045040    1.491477    0.000000
      6          6           0       -2.264788    0.807646    0.000000
      7          1           0       -4.383207    3.475393    0.000000
      8          1           0       -2.215750    4.690540    0.000000
      9          1           0       -2.278506   -0.278753    0.000000
     10          1           0       -4.414585    0.990746    0.000000
     11          1           0       -0.079673    3.421041    0.000000
     12          1           0       -0.111053    0.936391    0.000000
 ---------------------------------------------------------------------
                    Distance matrix (angstroms):
                    1          2          3          4          5
     1  C    0.000000
     2  C    1.398358   0.000000
     3  C    1.398359   2.422026   0.000000
     4  C    2.422028   2.796714   1.398357   0.000000
     5  C    2.796719   2.422027   2.422028   1.398358   0.000000
     6  C    2.422029   1.398358   2.796716   2.422027   1.398360
     7  H    1.086486   2.157582   2.157582   3.406547   3.883205
     8  H    2.157581   3.406545   1.086486   2.157580   3.406547
     9  H    3.406549   2.157582   3.883202   3.406545   2.157580
    10  H    2.157580   1.086487   3.406546   3.883201   3.406547
    11  H    3.406548   3.883201   2.157581   1.086487   2.157580
    12  H    3.883205   3.406545   3.406548   2.157584   1.086486
                    6          7          8          9         10
     6  C    0.000000
     7  H    3.406548   0.000000
     8  H    3.883203   2.484844   0.000000
     9  H    1.086486   4.303880   4.969689   0.000000
    10  H    2.157580   2.484846   4.303876   2.484846   0.000000
    11  H    3.406547   4.303877   2.484845   4.303875   4.969688
    12  H    2.157580   4.969691   4.303879   2.484839   4.303875
                   11         12
    11  H    0.000000
    12  H    2.484848   0.000000
 Stoichiometry    C6H6
 Framework group  CS[SG(C6H6)]
 Deg. of freedom    21
 Full point group                 CS      NOp   2
 RotChk:  IX=0 Diff= 2.00D+00
 Largest Abelian subgroup         CS      NOp   2
 Largest concise Abelian subgroup C1      NOp   1
                         Standard orientation:                         
 ---------------------------------------------------------------------
 Center     Atomic      Atomic             Coordinates (Angstroms)
 Number     Number       Type             X           Y           Z
 ---------------------------------------------------------------------
      1          6           0       -0.699179   -1.211015    0.000000
      2          6           0        0.699179   -1.211012    0.000000
      3          6           0       -1.398358   -0.000000    0.000000
      4          6           0       -0.699179    1.211013    0.000000
      5          6           0        0.699179    1.211015    0.000000
      6          6           0        1.398359    0.000000    0.000000
      7          1           0       -1.242423   -2.151940    0.000000
      8          1           0       -2.484844   -0.000001    0.000000
      9          1           0        2.484844    0.000003    0.000000
     10          1           0        1.242423   -2.151937    0.000000
     11          1           0       -1.242423    2.151938    0.000000
     12          1           0        1.242425    2.151938    0.000000
 ---------------------------------------------------------------------
 Rotational constants (GHZ):           5.6744091           5.6744001           2.8372023
 Leave Link  202 at Tue Mar 26 11:36:27 2019, MaxMem=   104857600 cpu:               0.0 elap:               0.0
 (Enter /opt/g16/l301.exe)
 Standard basis: 6-31+G(d,p) (6D, 7F)
 Ernie: Thresh=  0.10000D-02 Tol=  0.10000D-05 Strict=F.
 There are   108 symmetry adapted cartesian basis functions of A'  symmetry.
 There are    36 symmetry adapted cartesian basis functions of A"  symmetry.
 There are   108 symmetry adapted basis functions of A'  symmetry.
 There are    36 symmetry adapted basis functions of A"  symmetry.
   144 basis functions,   234 primitive gaussians,   144 cartesian basis functions
    21 alpha electrons       21 beta electrons
       nuclear repulsion energy       202.9865275048 Hartrees.
 IExCor=  402 DFT=T Ex+Corr=B3LYP ExCW=0 ScaHFX=  0.200000
 ScaDFX=  0.800000  0.720000  1.000000  0.810000 ScalE2=  1.000000  1.000000
 IRadAn=      5 IRanWt=     -1 IRanGd=            0 ICorTp=0 IEmpDi=  4
 NAtoms=   12 NActive=   12 NUniq=   12 SFac= 1.00D+00 NAtFMM=   60 NAOKFM=F Big=F
 Integral buffers will be    131072 words long.
 Raffenetti 2 integral format.
 Two-electron integral symmetry is turned on.
 Leave Link  301 at Tue Mar 26 11:36:27 2019, MaxMem=   104857600 cpu:               0.0 elap:               0.1
 (Enter /opt/g16/l302.exe)
 NPDir=0 NMtPBC=     1 NCelOv=     1 NCel=       1 NClECP=     1 NCelD=      1
         NCelK=      1 NCelE2=     1 NClLst=     1 CellRange=     0.0.
 One-electron integrals computed using PRISM.
 One-electron integral symmetry used in STVInt
 NBasis=   144 RedAO= T EigKep=  6.51D-06  NBF=   108    36
 NBsUse=   144 1.00D-06 EigRej= -1.00D+00 NBFU=   108    36
 Precomputing XC quadrature grid using
 IXCGrd= 4 IRadAn=           5 IRanWt=          -1 IRanGd=           0 AccXCQ= 0.00D+00.
 Generated NRdTot=       0 NPtTot=           0 NUsed=           0 NTot=          32
 NSgBfM=   144   144   144   144   144 MxSgAt=    12 MxSgA2=    12.
 Leave Link  302 at Tue Mar 26 11:36:28 2019, MaxMem=   104857600 cpu:               0.5 elap:               0.5
 (Enter /opt/g16/l303.exe)
 DipDrv:  MaxL=1.
 Leave Link  303 at Tue Mar 26 11:36:28 2019, MaxMem=   104857600 cpu:               0.0 elap:               0.0
 (Enter /opt/g16/l401.exe)
 Initial guess from the checkpoint file:  "Benceno.chk"
 B after Tr=    -0.000000    0.000000    0.000000
         Rot=    0.707109    0.000000    0.000000    0.707105 Ang=  90.00 deg.
 Guess basis will be translated and rotated to current coordinates.
 JPrj=2 DoOrth=T DoCkMO=T.
 Initial guess orbital symmetries:
       Occupied  (A') (A') (A') (A') (A') (A') (A') (A') (A') (A')
                 (A') (A') (A') (A') (A') (A') (A") (A') (A') (A")
                 (A")
       Virtual   (A") (A") (A') (A') (A') (A') (A') (A") (A') (A')
                 (A") (A") (A') (A") (A") (A") (A') (A') (A') (A')
                 (A') (A') (A') (A") (A') (A') (A') (A') (A') (A')
                 (A') (A') (A') (A') (A') (A') (A') (A') (A') (A')
                 (A') (A") (A") (A") (A') (A') (A") (A") (A') (A')
                 (A") (A') (A') (A') (A') (A') (A') (A') (A') (A')
                 (A') (A') (A') (A') (A') (A") (A") (A') (A") (A")
                 (A") (A") (A') (A') (A') (A') (A') (A') (A') (A')
                 (A") (A") (A') (A') (A") (A') (A') (A") (A") (A")
                 (A') (A') (A') (A") (A") (A') (A') (A') (A') (A")
                 (A") (A') (A') (A") (A") (A') (A') (A') (A') (A')
                 (A') (A') (A') (A') (A') (A') (A') (A') (A') (A')
                 (A') (A') (A')
 The electronic state of the initial guess is 1-A'.
 Leave Link  401 at Tue Mar 26 11:36:28 2019, MaxMem=   104857600 cpu:               0.1 elap:               0.1
 (Enter /opt/g16/l502.exe)
 Keep R1 ints in memory in symmetry-blocked form, NReq=83553999.
 FoFCou: FMM=F IPFlag=           0 FMFlag=           0 FMFlg1=           0
         NFxFlg=           0 DoJE=F BraDBF=F KetDBF=F FulRan=T
         wScrn=  0.000000 ICntrl=       600 IOpCl=  0 I1Cent=           0 NGrid=           0
         NMat0=    1 NMatS0=  10440 NMatT0=    0 NMatD0=    1 NMtDS0=    0 NMtDT0=    0
 Petite list used in FoFCou.
 Closed shell SCF:
 Using DIIS extrapolation, IDIIS=  1040.
 NGot=   104857600 LenX=    75762758 LenY=    75741581
 Requested convergence on RMS density matrix=1.00D-08 within 128 cycles.
 Requested convergence on MAX density matrix=1.00D-06.
 Requested convergence on             energy=1.00D-06.
 No special actions if energy rises.

 Cycle   1  Pass 1  IDiag  1:
 E= -232.268374071041    
 DIIS: error= 3.89D-04 at cycle   1 NSaved=   1.
 NSaved= 1 IEnMin= 1 EnMin= -232.268374071041     IErMin= 1 ErrMin= 3.89D-04
 ErrMax= 3.89D-04  0.00D+00 EMaxC= 1.00D-01 BMatC= 1.06D-05 BMatP= 1.06D-05
 IDIUse=3 WtCom= 9.96D-01 WtEn= 3.89D-03
 Coeff-Com:  0.100D+01
 Coeff-En:   0.100D+01
 Coeff:      0.100D+01
 Gap=     0.242 Goal=   None    Shift=    0.000
 RMSDP=2.12D-04 MaxDP=4.81D-03              OVMax= 1.14D-03

 Cycle   2  Pass 1  IDiag  1:
 E= -232.268388249182     Delta-E=       -0.000014178141 Rises=F Damp=F
 DIIS: error= 7.11D-05 at cycle   2 NSaved=   2.
 NSaved= 2 IEnMin= 2 EnMin= -232.268388249182     IErMin= 2 ErrMin= 7.11D-05
 ErrMax= 7.11D-05  0.00D+00 EMaxC= 1.00D-01 BMatC= 6.10D-07 BMatP= 1.06D-05
 IDIUse=1 WtCom= 1.00D+00 WtEn= 0.00D+00
 Coeff-Com:  0.124D+00 0.876D+00
 Coeff:      0.124D+00 0.876D+00
 Gap=     0.242 Goal=   None    Shift=    0.000
 RMSDP=2.90D-05 MaxDP=5.89D-04 DE=-1.42D-05 OVMax= 2.28D-04

 Cycle   3  Pass 1  IDiag  1:
 E= -232.268388814862     Delta-E=       -0.000000565680 Rises=F Damp=F
 DIIS: error= 2.74D-05 at cycle   3 NSaved=   3.
 NSaved= 3 IEnMin= 3 EnMin= -232.268388814862     IErMin= 3 ErrMin= 2.74D-05
 ErrMax= 2.74D-05  0.00D+00 EMaxC= 1.00D-01 BMatC= 6.52D-08 BMatP= 6.10D-07
 IDIUse=1 WtCom= 1.00D+00 WtEn= 0.00D+00
 Coeff-Com:  0.497D-02 0.223D+00 0.772D+00
 Coeff:      0.497D-02 0.223D+00 0.772D+00
 Gap=     0.242 Goal=   None    Shift=    0.000
 RMSDP=6.90D-06 MaxDP=1.19D-04 DE=-5.66D-07 OVMax= 7.68D-05

 Cycle   4  Pass 1  IDiag  1:
 E= -232.268388874990     Delta-E=       -0.000000060129 Rises=F Damp=F
 DIIS: error= 1.17D-05 at cycle   4 NSaved=   4.
 NSaved= 4 IEnMin= 4 EnMin= -232.268388874990     IErMin= 4 ErrMin= 1.17D-05
 ErrMax= 1.17D-05  0.00D+00 EMaxC= 1.00D-01 BMatC= 1.19D-08 BMatP= 6.52D-08
 IDIUse=1 WtCom= 1.00D+00 WtEn= 0.00D+00
 Coeff-Com: -0.343D-02 0.707D-01 0.347D+00 0.585D+00
 Coeff:     -0.343D-02 0.707D-01 0.347D+00 0.585D+00
 Gap=     0.242 Goal=   None    Shift=    0.000
 RMSDP=2.57D-06 MaxDP=5.77D-05 DE=-6.01D-08 OVMax= 2.80D-05

 Cycle   5  Pass 1  IDiag  1:
 E= -232.268388887483     Delta-E=       -0.000000012492 Rises=F Damp=F
 DIIS: error= 2.30D-06 at cycle   5 NSaved=   5.
 NSaved= 5 IEnMin= 5 EnMin= -232.268388887483     IErMin= 5 ErrMin= 2.30D-06
 ErrMax= 2.30D-06  0.00D+00 EMaxC= 1.00D-01 BMatC= 4.89D-10 BMatP= 1.19D-08
 IDIUse=1 WtCom= 1.00D+00 WtEn= 0.00D+00
 Coeff-Com: -0.120D-02-0.116D-02 0.301D-01 0.194D+00 0.778D+00
 Coeff:     -0.120D-02-0.116D-02 0.301D-01 0.194D+00 0.778D+00
 Gap=     0.242 Goal=   None    Shift=    0.000
 RMSDP=3.03D-07 MaxDP=3.38D-06 DE=-1.25D-08 OVMax= 5.31D-06

 Cycle   6  Pass 1  IDiag  1:
 E= -232.268388887981     Delta-E=       -0.000000000498 Rises=F Damp=F
 DIIS: error= 2.46D-07 at cycle   6 NSaved=   6.
 NSaved= 6 IEnMin= 6 EnMin= -232.268388887981     IErMin= 6 ErrMin= 2.46D-07
 ErrMax= 2.46D-07  0.00D+00 EMaxC= 1.00D-01 BMatC= 2.90D-12 BMatP= 4.89D-10
 IDIUse=1 WtCom= 1.00D+00 WtEn= 0.00D+00
 Coeff-Com: -0.341D-03-0.760D-03 0.752D-02 0.569D-01 0.231D+00 0.705D+00
 Coeff:     -0.341D-03-0.760D-03 0.752D-02 0.569D-01 0.231D+00 0.705D+00
 Gap=     0.242 Goal=   None    Shift=    0.000
 RMSDP=3.98D-08 MaxDP=8.80D-07 DE=-4.98D-10 OVMax= 1.72D-06

 Cycle   7  Pass 1  IDiag  1:
 E= -232.268388887977     Delta-E=        0.000000000004 Rises=F Damp=F
 DIIS: error= 2.68D-07 at cycle   7 NSaved=   7.
 NSaved= 7 IEnMin= 6 EnMin= -232.268388887981     IErMin= 6 ErrMin= 2.46D-07
 ErrMax= 2.68D-07  0.00D+00 EMaxC= 1.00D-01 BMatC= 3.34D-12 BMatP= 2.90D-12
 IDIUse=1 WtCom= 1.00D+00 WtEn= 0.00D+00
 Coeff-Com:  0.215D-04-0.307D-03-0.128D-02-0.217D-02-0.688D-02 0.524D+00
 Coeff-Com:  0.486D+00
 Coeff:      0.215D-04-0.307D-03-0.128D-02-0.217D-02-0.688D-02 0.524D+00
 Coeff:      0.486D+00
 Gap=     0.242 Goal=   None    Shift=    0.000
 RMSDP=2.06D-08 MaxDP=4.50D-07 DE= 3.81D-12 OVMax= 8.91D-07

 Cycle   8  Pass 1  IDiag  1:
 E= -232.268388887981     Delta-E=       -0.000000000004 Rises=F Damp=F
 DIIS: error= 5.72D-09 at cycle   8 NSaved=   8.
 NSaved= 8 IEnMin= 8 EnMin= -232.268388887981     IErMin= 8 ErrMin= 5.72D-09
 ErrMax= 5.72D-09  0.00D+00 EMaxC= 1.00D-01 BMatC= 5.53D-15 BMatP= 2.90D-12
 IDIUse=1 WtCom= 1.00D+00 WtEn= 0.00D+00
 Coeff-Com:  0.943D-05-0.892D-04-0.485D-03-0.134D-02-0.405D-02 0.148D+00
 Coeff-Com:  0.143D+00 0.715D+00
 Coeff:      0.943D-05-0.892D-04-0.485D-03-0.134D-02-0.405D-02 0.148D+00
 Coeff:      0.143D+00 0.715D+00
 Gap=     0.242 Goal=   None    Shift=    0.000
 RMSDP=1.22D-09 MaxDP=2.91D-08 DE=-4.09D-12 OVMax= 4.65D-08

 SCF Done:  E(RB3LYP) =  -232.268388888     A.U. after    8 cycles
            NFock=  8  Conv=0.12D-08     -V/T= 2.0103
 KE= 2.299114058976D+02 PE=-9.429304596813D+02 EE= 2.777641373909D+02
 Leave Link  502 at Tue Mar 26 11:37:11 2019, MaxMem=   104857600 cpu:              43.1 elap:              43.1
 (Enter /opt/g16/l701.exe)
 ... and contract with generalized density number  0.
 Compute integral first derivatives.
 Leave Link  701 at Tue Mar 26 11:37:11 2019, MaxMem=   104857600 cpu:               0.2 elap:               0.2
 (Enter /opt/g16/l702.exe)
 L702 exits ... SP integral derivatives will be done elsewhere.
 Leave Link  702 at Tue Mar 26 11:37:11 2019, MaxMem=   104857600 cpu:               0.0 elap:               0.0
 (Enter /opt/g16/l703.exe)
 Integral derivatives from FoFJK, PRISM(SPDF).
 Compute integral first derivatives, UseDBF=F ICtDFT=           0.
 Calling FoFJK, ICntrl=      2127 FMM=F ISym2X=1 I1Cent= 0 IOpClX= 0 NMat=1 NMatS=1 NMatT=0.
 FoFJK:  IHMeth= 1 ICntrl=    2127 DoSepK=F KAlg= 0 I1Cent=           0 FoldK=F
 IRaf=         0 NMat=       1 IRICut=       1 DoRegI=T DoRafI=F ISym2E= 1 IDoP0=0 IntGTp=1.
 FoFCou: FMM=F IPFlag=           0 FMFlag=      100000 FMFlg1=         800
         NFxFlg=           0 DoJE=F BraDBF=F KetDBF=F FulRan=T
         wScrn=  0.000000 ICntrl=      2127 IOpCl=  0 I1Cent=           0 NGrid=           0
         NMat0=    1 NMatS0=      1 NMatT0=    0 NMatD0=    1 NMtDS0=    0 NMtDT0=    0
 Petite list used in FoFCou.
 Leave Link  703 at Tue Mar 26 11:37:29 2019, MaxMem=   104857600 cpu:              17.8 elap:              17.8
 (Enter /opt/g16/l716.exe)
 Dipole        = 5.08965876D-07 1.56407578D-07 0.00000000D+00
 ***** Axes restored to original set *****
 -------------------------------------------------------------------
 Center     Atomic                   Forces (Hartrees/Bohr)
 Number     Number              X              Y              Z
 -------------------------------------------------------------------
      1        6          -0.000023924    0.000014547   -0.000000000
      2        6          -0.000027370   -0.000014515   -0.000000000
      3        6          -0.000000878    0.000030026   -0.000000000
      4        6           0.000027090    0.000013779   -0.000000000
      5        6           0.000023836   -0.000015592   -0.000000000
      6        6           0.000001326   -0.000028619   -0.000000000
      7        1           0.000037133   -0.000022073   -0.000000000
      8        1          -0.000000413   -0.000043374   -0.000000000
      9        1           0.000000158    0.000043141   -0.000000000
     10        1           0.000038105    0.000021217   -0.000000000
     11        1          -0.000038043   -0.000021012   -0.000000000
     12        1          -0.000037022    0.000022475   -0.000000000
 -------------------------------------------------------------------
 Cartesian Forces:  Max     0.000043374 RMS     0.000021394
 Leave Link  716 at Tue Mar 26 11:37:29 2019, MaxMem=   104857600 cpu:               0.0 elap:               0.0
 (Enter /opt/g16/l103.exe)

 GradGradGradGradGradGradGradGradGradGradGradGradGradGradGradGradGradGrad
 Berny optimization.
 Using GEDIIS/GDIIS optimizer.
 FormGI is forming the generalized inverse of G from B-inverse, IUseBI=4.
 Internal  Forces:  Max     0.000043613 RMS     0.000015182
 Search for a local minimum.
 Step number   2 out of a maximum of   64
 All quantities printed in internal units (Hartrees-Bohrs-Radians)
 RMS Force = .15182D-04 SwitMx=.10000D-02 MixMth= 2
 Mixed Optimization -- En-DIIS/RFO-DIIS
 Swapping is turned off.
 Update second derivatives using D2CorX and points    1    2
 DE= -6.68D-05 DEPred=-6.81D-05 R= 9.82D-01
 TightC=F SS=  1.41D+00  RLast= 1.94D-02 DXNew= 5.0454D-01 5.8341D-02
 Trust test= 9.82D-01 RLast= 1.94D-02 DXMaxT set to 3.00D-01
 ITU=  1  0
     Eigenvalues ---    0.02101   0.02101   0.02101   0.02101   0.02101
     Eigenvalues ---    0.02101   0.02101   0.02101   0.02101   0.16000
     Eigenvalues ---    0.16000   0.16000   0.16000   0.16000   0.16000
     Eigenvalues ---    0.22000   0.22000   0.22000   0.35712   0.35712
     Eigenvalues ---    0.35713   0.35713   0.35714   0.36304   0.41574
     Eigenvalues ---    0.41575   0.45690   0.45779   0.45780   0.45780
 En-DIIS/RFO-DIIS/Sim-DIIS IScMMF=       -3 using points:     2    1
 RFO step:  Lambda=-3.11135826D-08.
 NNeg= 0 NGDIIS= 2 SimSw=  2.50D-03 Rises=F DC= -6.68D-05 SmlDif=  1.00D-05
 NRisDI= 0 DoIntr=F SqrtH=F CThrHd= 10.0 CDAdj=  3.0
 RMS Error=  0.4101776210D-04 NUsed= 2 OKEnD=T EnDIS=F
 InvSVX:  RCond= 4.25D-04 Info=           0 Equed=N FErr=  9.39D-16 BErr=  6.92D-17
 DidBck=F Rises=F RFO-DIIS coefs:    0.98580    0.01420
 Iteration  1 RMS(Cart)=  0.00005080 RMS(Int)=  0.00000000
 Iteration  2 RMS(Cart)=  0.00000000 RMS(Int)=  0.00000000
 ITry= 1 IFail=0 DXMaxC= 1.49D-04 DCOld= 1.00D+10 DXMaxT= 3.00D-01 DXLimC= 3.00D+00 Rises=F
 ClnCor:  largest displacement from symmetrization is 2.35D-13 for atom    10.
 Variable       Old X    -DE/DX   Delta X   Delta X   Delta X     New X
                                 (Linear)    (Quad)   (Total)
    R1        2.64251  -0.00001   0.00002  -0.00005  -0.00003   2.64248
    R2        2.64252  -0.00001   0.00002  -0.00005  -0.00003   2.64248
    R3        2.05316  -0.00004  -0.00011  -0.00001  -0.00012   2.05304
    R4        2.64251  -0.00001   0.00002  -0.00005  -0.00003   2.64248
    R5        2.05316  -0.00004  -0.00011  -0.00001  -0.00012   2.05304
    R6        2.64251  -0.00001   0.00002  -0.00005  -0.00003   2.64248
    R7        2.05316  -0.00004  -0.00011  -0.00001  -0.00012   2.05304
    R8        2.64251  -0.00001   0.00002  -0.00005  -0.00003   2.64248
    R9        2.05316  -0.00004  -0.00011  -0.00001  -0.00012   2.05304
   R10        2.64252  -0.00001   0.00002  -0.00005  -0.00003   2.64249
   R11        2.05316  -0.00004  -0.00011  -0.00001  -0.00012   2.05304
   R12        2.05316  -0.00004  -0.00011  -0.00001  -0.00012   2.05304
    A1        2.09439   0.00000  -0.00000   0.00000   0.00000   2.09439
    A2        2.09440  -0.00000   0.00000  -0.00000  -0.00000   2.09440
    A3        2.09440  -0.00000   0.00000  -0.00000  -0.00000   2.09439
    A4        2.09440  -0.00000   0.00000  -0.00000  -0.00000   2.09440
    A5        2.09439   0.00000  -0.00000   0.00000   0.00000   2.09440
    A6        2.09439   0.00000  -0.00000   0.00000   0.00000   2.09439
    A7        2.09440  -0.00000   0.00000  -0.00000  -0.00000   2.09440
    A8        2.09439   0.00000  -0.00000   0.00000   0.00000   2.09439
    A9        2.09440  -0.00000  -0.00000  -0.00000  -0.00000   2.09440
   A10        2.09440  -0.00000   0.00000  -0.00000  -0.00000   2.09440
   A11        2.09440  -0.00000   0.00000  -0.00000  -0.00000   2.09439
   A12        2.09439   0.00000  -0.00000   0.00000   0.00000   2.09440
   A13        2.09439   0.00000  -0.00000   0.00000   0.00000   2.09439
   A14        2.09440  -0.00000   0.00000  -0.00000  -0.00000   2.09440
   A15        2.09439   0.00000  -0.00000   0.00000   0.00000   2.09439
   A16        2.09439   0.00000  -0.00000   0.00000   0.00000   2.09440
   A17        2.09440  -0.00000   0.00000  -0.00000  -0.00000   2.09440
   A18        2.09439   0.00000  -0.00000   0.00000   0.00000   2.09439
    D1        0.00000  -0.00000   0.00000  -0.00000   0.00000   0.00000
    D2        3.14159  -0.00000  -0.00000   0.00000   0.00000   3.14159
    D3        3.14159   0.00000  -0.00000   0.00000   0.00000   3.14159
    D4        0.00000   0.00000   0.00000   0.00000   0.00000   0.00000
    D5        0.00000   0.00000   0.00000   0.00000   0.00000   0.00000
    D6        3.14159  -0.00000  -0.00000  -0.00000   0.00000   3.14159
    D7        3.14159  -0.00000  -0.00000  -0.00000   0.00000   3.14159
    D8        0.00000   0.00000   0.00000  -0.00000   0.00000   0.00000
    D9        0.00000   0.00000   0.00000   0.00000   0.00000   0.00000
   D10        3.14159   0.00000  -0.00000   0.00000   0.00000   3.14159
   D11        3.14159  -0.00000  -0.00000  -0.00000   0.00000   3.14159
   D12        0.00000   0.00000   0.00000  -0.00000   0.00000   0.00000
   D13        0.00000   0.00000   0.00000  -0.00000   0.00000   0.00000
   D14        3.14159  -0.00000  -0.00000   0.00000   0.00000   3.14159
   D15        3.14159  -0.00000  -0.00000   0.00000   0.00000   3.14159
   D16        0.00000  -0.00000   0.00000   0.00000   0.00000   0.00000
   D17        0.00000   0.00000   0.00000   0.00000   0.00000   0.00000
   D18        3.14159  -0.00000  -0.00000   0.00000   0.00000   3.14159
   D19        3.14159  -0.00000  -0.00000   0.00000   0.00000   3.14159
   D20        0.00000  -0.00000   0.00000  -0.00000   0.00000   0.00000
   D21        0.00000   0.00000   0.00000  -0.00000   0.00000   0.00000
   D22        3.14159   0.00000  -0.00000  -0.00000   0.00000   3.14159
   D23        3.14159  -0.00000  -0.00000  -0.00000   0.00000   3.14159
   D24        0.00000  -0.00000   0.00000   0.00000   0.00000   0.00000
         Item               Value     Threshold  Converged?
 Maximum Force            0.000044     0.000450     YES
 RMS     Force            0.000015     0.000300     YES
 Maximum Displacement     0.000149     0.001800     YES
 RMS     Displacement     0.000051     0.001200     YES
 Predicted change in Energy=-1.677741D-08
 Optimization completed.
    -- Stationary point found.
                           ----------------------------
                           !   Optimized Parameters   !
                           ! (Angstroms and Degrees)  !
 --------------------------                            --------------------------
 ! Name  Definition              Value          Derivative Info.                !
 --------------------------------------------------------------------------------
 ! R1    R(1,2)                  1.3984         -DE/DX =    0.0                 !
 ! R2    R(1,3)                  1.3984         -DE/DX =    0.0                 !
 ! R3    R(1,7)                  1.0865         -DE/DX =    0.0                 !
 ! R4    R(2,6)                  1.3984         -DE/DX =    0.0                 !
 ! R5    R(2,10)                 1.0865         -DE/DX =    0.0                 !
 ! R6    R(3,4)                  1.3984         -DE/DX =    0.0                 !
 ! R7    R(3,8)                  1.0865         -DE/DX =    0.0                 !
 ! R8    R(4,5)                  1.3984         -DE/DX =    0.0                 !
 ! R9    R(4,11)                 1.0865         -DE/DX =    0.0                 !
 ! R10   R(5,6)                  1.3984         -DE/DX =    0.0                 !
 ! R11   R(5,12)                 1.0865         -DE/DX =    0.0                 !
 ! R12   R(6,9)                  1.0865         -DE/DX =    0.0                 !
 ! A1    A(2,1,3)              119.9998         -DE/DX =    0.0                 !
 ! A2    A(2,1,7)              120.0001         -DE/DX =    0.0                 !
 ! A3    A(3,1,7)              120.0            -DE/DX =    0.0                 !
 ! A4    A(1,2,6)              120.0002         -DE/DX =    0.0                 !
 ! A5    A(1,2,10)             119.9999         -DE/DX =    0.0                 !
 ! A6    A(6,2,10)             119.9999         -DE/DX =    0.0                 !
 ! A7    A(1,3,4)              120.0001         -DE/DX =    0.0                 !
 ! A8    A(1,3,8)              119.9999         -DE/DX =    0.0                 !
 ! A9    A(4,3,8)              120.0            -DE/DX =    0.0                 !
 ! A10   A(3,4,5)              120.0001         -DE/DX =    0.0                 !
 ! A11   A(3,4,11)             120.0            -DE/DX =    0.0                 !
 ! A12   A(5,4,11)             119.9999         -DE/DX =    0.0                 !
 ! A13   A(4,5,6)              119.9999         -DE/DX =    0.0                 !
 ! A14   A(4,5,12)             120.0003         -DE/DX =    0.0                 !
 ! A15   A(6,5,12)             119.9998         -DE/DX =    0.0                 !
 ! A16   A(2,6,5)              119.9999         -DE/DX =    0.0                 !
 ! A17   A(2,6,9)              120.0002         -DE/DX =    0.0                 !
 ! A18   A(5,6,9)              119.9998         -DE/DX =    0.0                 !
 ! D1    D(3,1,2,6)              0.0            -DE/DX =    0.0                 !
 ! D2    D(3,1,2,10)           180.0            -DE/DX =    0.0                 !
 ! D3    D(7,1,2,6)            180.0            -DE/DX =    0.0                 !
 ! D4    D(7,1,2,10)             0.0            -DE/DX =    0.0                 !
 ! D5    D(2,1,3,4)              0.0            -DE/DX =    0.0                 !
 ! D6    D(2,1,3,8)            180.0            -DE/DX =    0.0                 !
 ! D7    D(7,1,3,4)            180.0            -DE/DX =    0.0                 !
 ! D8    D(7,1,3,8)              0.0            -DE/DX =    0.0                 !
 ! D9    D(1,2,6,5)              0.0            -DE/DX =    0.0                 !
 ! D10   D(1,2,6,9)            180.0            -DE/DX =    0.0                 !
 ! D11   D(10,2,6,5)           180.0            -DE/DX =    0.0                 !
 ! D12   D(10,2,6,9)             0.0            -DE/DX =    0.0                 !
 ! D13   D(1,3,4,5)              0.0            -DE/DX =    0.0                 !
 ! D14   D(1,3,4,11)           180.0            -DE/DX =    0.0                 !
 ! D15   D(8,3,4,5)            180.0            -DE/DX =    0.0                 !
 ! D16   D(8,3,4,11)             0.0            -DE/DX =    0.0                 !
 ! D17   D(3,4,5,6)              0.0            -DE/DX =    0.0                 !
 ! D18   D(3,4,5,12)           180.0            -DE/DX =    0.0                 !
 ! D19   D(11,4,5,6)           180.0            -DE/DX =    0.0                 !
 ! D20   D(11,4,5,12)            0.0            -DE/DX =    0.0                 !
 ! D21   D(4,5,6,2)              0.0            -DE/DX =    0.0                 !
 ! D22   D(4,5,6,9)            180.0            -DE/DX =    0.0                 !
 ! D23   D(12,5,6,2)           180.0            -DE/DX =    0.0                 !
 ! D24   D(12,5,6,9)             0.0            -DE/DX =    0.0                 !
 --------------------------------------------------------------------------------
 Lowest energy point so far.  Saving SCF results.
 Largest change from initial coordinates is atom   11       3.512 Angstoms.
 GradGradGradGradGradGradGradGradGradGradGradGradGradGradGradGradGradGrad

 Leave Link  103 at Tue Mar 26 11:37:29 2019, MaxMem=   104857600 cpu:               0.0 elap:               0.0
 (Enter /opt/g16/l202.exe)
                          Input orientation:                          
 ---------------------------------------------------------------------
 Center     Atomic      Atomic             Coordinates (Angstroms)
 Number     Number       Type             X           Y           Z
 ---------------------------------------------------------------------
      1          6           0       -3.449218    2.920311    0.000000
      2          6           0       -3.466875    1.522064    0.000000
      3          6           0       -2.229470    3.604140    0.000000
      4          6           0       -1.027383    2.889724    0.000000
      5          6           0       -1.045040    1.491477    0.000000
      6          6           0       -2.264788    0.807646    0.000000
      7          1           0       -4.383207    3.475393    0.000000
      8          1           0       -2.215750    4.690540    0.000000
      9          1           0       -2.278506   -0.278753    0.000000
     10          1           0       -4.414585    0.990746    0.000000
     11          1           0       -0.079673    3.421041    0.000000
     12          1           0       -0.111053    0.936391    0.000000
 ---------------------------------------------------------------------
                    Distance matrix (angstroms):
                    1          2          3          4          5
     1  C    0.000000
     2  C    1.398358   0.000000
     3  C    1.398359   2.422026   0.000000
     4  C    2.422028   2.796714   1.398357   0.000000
     5  C    2.796719   2.422027   2.422028   1.398358   0.000000
     6  C    2.422029   1.398358   2.796716   2.422027   1.398360
     7  H    1.086486   2.157582   2.157582   3.406547   3.883205
     8  H    2.157581   3.406545   1.086486   2.157580   3.406547
     9  H    3.406549   2.157582   3.883202   3.406545   2.157580
    10  H    2.157580   1.086487   3.406546   3.883201   3.406547
    11  H    3.406548   3.883201   2.157581   1.086487   2.157580
    12  H    3.883205   3.406545   3.406548   2.157584   1.086486
                    6          7          8          9         10
     6  C    0.000000
     7  H    3.406548   0.000000
     8  H    3.883203   2.484844   0.000000
     9  H    1.086486   4.303880   4.969689   0.000000
    10  H    2.157580   2.484846   4.303876   2.484846   0.000000
    11  H    3.406547   4.303877   2.484845   4.303875   4.969688
    12  H    2.157580   4.969691   4.303879   2.484839   4.303875
                   11         12
    11  H    0.000000
    12  H    2.484848   0.000000
 Stoichiometry    C6H6
 Framework group  CS[SG(C6H6)]
 Deg. of freedom    21
 Full point group                 CS      NOp   2
 RotChk:  IX=0 Diff= 7.85D-17
 Largest Abelian subgroup         CS      NOp   2
 Largest concise Abelian subgroup C1      NOp   1
                         Standard orientation:                         
 ---------------------------------------------------------------------
 Center     Atomic      Atomic             Coordinates (Angstroms)
 Number     Number       Type             X           Y           Z
 ---------------------------------------------------------------------
      1          6           0       -0.699179   -1.211015    0.000000
      2          6           0        0.699179   -1.211012    0.000000
      3          6           0       -1.398358   -0.000000    0.000000
      4          6           0       -0.699179    1.211013    0.000000
      5          6           0        0.699179    1.211015    0.000000
      6          6           0        1.398359    0.000000    0.000000
      7          1           0       -1.242423   -2.151940    0.000000
      8          1           0       -2.484844   -0.000001    0.000000
      9          1           0        2.484844    0.000003    0.000000
     10          1           0        1.242423   -2.151937    0.000000
     11          1           0       -1.242423    2.151938    0.000000
     12          1           0        1.242425    2.151938    0.000000
 ---------------------------------------------------------------------
 Rotational constants (GHZ):           5.6744091           5.6744001           2.8372023
 Leave Link  202 at Tue Mar 26 11:37:29 2019, MaxMem=   104857600 cpu:               0.0 elap:               0.0
 (Enter /opt/g16/l601.exe)
 Copying SCF densities to generalized density rwf, IOpCl= 0 IROHF=0.

 **********************************************************************

            Population analysis using the SCF Density.

 **********************************************************************

 Orbital symmetries:
       Occupied  (A') (A') (A') (A') (A') (A') (A') (A') (A') (A')
                 (A') (A') (A') (A') (A') (A') (A") (A') (A') (A")
                 (A")
       Virtual   (A") (A") (A') (A') (A') (A') (A') (A") (A') (A')
                 (A") (A") (A') (A") (A") (A") (A') (A') (A') (A')
                 (A') (A') (A') (A") (A') (A') (A') (A') (A') (A')
                 (A') (A') (A') (A') (A') (A') (A') (A') (A') (A')
                 (A') (A") (A") (A") (A') (A') (A") (A") (A') (A')
                 (A") (A') (A') (A') (A') (A') (A') (A') (A') (A')
                 (A') (A') (A') (A') (A') (A") (A") (A') (A") (A")
                 (A") (A") (A') (A') (A') (A') (A') (A') (A') (A')
                 (A") (A") (A') (A') (A") (A') (A') (A") (A") (A")
                 (A') (A') (A') (A") (A") (A') (A') (A') (A') (A")
                 (A") (A') (A') (A") (A") (A') (A') (A') (A') (A')
                 (A') (A') (A') (A') (A') (A') (A') (A') (A') (A')
                 (A') (A') (A')
 The electronic state is 1-A'.
 Alpha  occ. eigenvalues --  -10.19882 -10.19856 -10.19856 -10.19801 -10.19801
 Alpha  occ. eigenvalues --  -10.19774  -0.85701  -0.74990  -0.74990  -0.60669
 Alpha  occ. eigenvalues --   -0.60669  -0.52660  -0.46648  -0.44880  -0.42578
 Alpha  occ. eigenvalues --   -0.42578  -0.36974  -0.34894  -0.34894  -0.25763
 Alpha  occ. eigenvalues --   -0.25763
 Alpha virt. eigenvalues --   -0.01548  -0.01548   0.00844   0.02563   0.02563
 Alpha virt. eigenvalues --    0.04540   0.04540   0.06656   0.07778   0.07943
 Alpha virt. eigenvalues --    0.09203   0.09203   0.09904   0.12484   0.14273
 Alpha virt. eigenvalues --    0.14273   0.14410   0.14410   0.15515   0.15515
 Alpha virt. eigenvalues --    0.19635   0.19635   0.19662   0.20491   0.21141
 Alpha virt. eigenvalues --    0.21142   0.23528   0.24450   0.24450   0.26616
 Alpha virt. eigenvalues --    0.27932   0.27932   0.32537   0.34709   0.34709
 Alpha virt. eigenvalues --    0.34833   0.34833   0.56233   0.56781   0.60124
 Alpha virt. eigenvalues --    0.61983   0.65873   0.71699   0.71699   0.71846
 Alpha virt. eigenvalues --    0.71846   0.74615   0.74615   0.76641   0.76641
 Alpha virt. eigenvalues --    0.80009   0.82619   0.88147   0.91383   0.91383
 Alpha virt. eigenvalues --    0.94904   0.94904   0.97559   1.02263   1.07045
 Alpha virt. eigenvalues --    1.07045   1.12175   1.12175   1.16610   1.16610
 Alpha virt. eigenvalues --    1.25078   1.29495   1.30995   1.39688   1.39688
 Alpha virt. eigenvalues --    1.41839   1.41839   1.43109   1.43109   1.74181
 Alpha virt. eigenvalues --    1.78404   1.84398   1.88690   1.94196   1.94196
 Alpha virt. eigenvalues --    1.98020   1.98020   2.00231   2.00231   2.02642
 Alpha virt. eigenvalues --    2.07273   2.07273   2.28836   2.28836   2.36315
 Alpha virt. eigenvalues --    2.37530   2.37530   2.40342   2.40684   2.40685
 Alpha virt. eigenvalues --    2.47001   2.47001   2.51300   2.51300   2.59082
 Alpha virt. eigenvalues --    2.59082   2.60471   2.61751   2.64301   2.76118
 Alpha virt. eigenvalues --    2.81095   2.81096   3.04904   3.04904   3.18222
 Alpha virt. eigenvalues --    3.25428   3.27416   3.27416   3.38215   3.52056
 Alpha virt. eigenvalues --    3.52056   3.94508   4.27240   4.28604   4.28604
 Alpha virt. eigenvalues --    4.48541   4.48541   4.85004
          Condensed to atoms (all electrons):
               1          2          3          4          5          6
     1  C    4.933239   0.496068   0.496068  -0.019799  -0.069227  -0.019801
     2  C    0.496068   4.933246  -0.019805  -0.069228  -0.019802   0.496068
     3  C    0.496068  -0.019805   4.933254   0.496068  -0.019803  -0.069228
     4  C   -0.019799  -0.069228   0.496068   4.933242   0.496068  -0.019803
     5  C   -0.069227  -0.019802  -0.019803   0.496068   4.933243   0.496067
     6  C   -0.019801   0.496068  -0.069228  -0.019803   0.496067   4.933251
     7  H    0.257468   0.021751   0.021751   0.003827  -0.001094   0.003827
     8  H    0.021752   0.003828   0.257466   0.021752   0.003827  -0.001094
     9  H    0.003827   0.021752  -0.001094   0.003828   0.021752   0.257466
    10  H    0.021751   0.257467   0.003828  -0.001094   0.003827   0.021752
    11  H    0.003827  -0.001094   0.021752   0.257468   0.021751   0.003828
    12  H   -0.001094   0.003828   0.003827   0.021751   0.257468   0.021752
               7          8          9         10         11         12
     1  C    0.257468   0.021752   0.003827   0.021751   0.003827  -0.001094
     2  C    0.021751   0.003828   0.021752   0.257467  -0.001094   0.003828
     3  C    0.021751   0.257466  -0.001094   0.003828   0.021752   0.003827
     4  C    0.003827   0.021752   0.003828  -0.001094   0.257468   0.021751
     5  C   -0.001094   0.003827   0.021752   0.003827   0.021751   0.257468
     6  C    0.003827  -0.001094   0.257466   0.021752   0.003828   0.021752
     7  H    0.580900  -0.006104  -0.000159  -0.006104  -0.000160   0.000014
     8  H   -0.006104   0.580902   0.000014  -0.000160  -0.006104  -0.000160
     9  H   -0.000159   0.000014   0.580902  -0.006104  -0.000160  -0.006104
    10  H   -0.006104  -0.000160  -0.006104   0.580901   0.000014  -0.000160
    11  H   -0.000160  -0.006104  -0.000160   0.000014   0.580901  -0.006104
    12  H    0.000014  -0.000160  -0.006104  -0.000160  -0.006104   0.580900
 Mulliken charges:
               1
     1  C   -0.124079
     2  C   -0.124078
     3  C   -0.124084
     4  C   -0.124079
     5  C   -0.124078
     6  C   -0.124085
     7  H    0.124081
     8  H    0.124080
     9  H    0.124080
    10  H    0.124081
    11  H    0.124081
    12  H    0.124081
 Sum of Mulliken charges =  -0.00000
 Mulliken charges with hydrogens summed into heavy atoms:
               1
     1  C    0.000002
     2  C    0.000002
     3  C   -0.000004
     4  C    0.000002
     5  C    0.000002
     6  C   -0.000004
 Electronic spatial extent (au):  <R**2>=            461.6253
 Charge=             -0.0000 electrons
 Dipole moment (field-independent basis, Debye):
    X=              0.0000    Y=              0.0000    Z=              0.0000  Tot=              0.0000
 Quadrupole moment (field-independent basis, Debye-Ang):
   XX=            -32.2465   YY=            -32.2465   ZZ=            -40.3462
   XY=              0.0000   XZ=              0.0000   YZ=              0.0000
 Traceless Quadrupole moment (field-independent basis, Debye-Ang):
   XX=              2.6999   YY=              2.6999   ZZ=             -5.3998
   XY=              0.0000   XZ=              0.0000   YZ=              0.0000
 Octapole moment (field-independent basis, Debye-Ang**2):
  XXX=              0.0000  YYY=             -0.0000  ZZZ=              0.0000  XYY=             -0.0000
  XXY=              0.0000  XXZ=              0.0000  XZZ=             -0.0000  YZZ=              0.0000
  YYZ=              0.0000  XYZ=              0.0000
 Hexadecapole moment (field-independent basis, Debye-Ang**3):
 XXXX=           -280.7813 YYYY=           -280.7810 ZZZZ=            -52.1190 XXXY=              0.0000
 XXXZ=              0.0000 YYYX=              0.0000 YYYZ=              0.0000 ZZZX=              0.0000
 ZZZY=              0.0000 XXYY=            -93.5936 XXZZ=            -66.3386 YYZZ=            -66.3386
 XXYZ=              0.0000 YYXZ=              0.0000 ZZXY=             -0.0000
 N-N= 2.029865275048D+02 E-N=-9.429304599783D+02  KE= 2.299114058976D+02
 Symmetry A'   KE= 2.236724520163D+02
 Symmetry A"   KE= 6.238953881316D+00
 No NMR shielding tensors so no spin-rotation constants.
 Leave Link  601 at Tue Mar 26 11:37:29 2019, MaxMem=   104857600 cpu:               0.2 elap:               0.2
 (Enter /opt/g16/l9999.exe)
 1\1\GINC-DYME\FOpt\RB3LYP\6-31+G(d,p)\C6H6\MONTOYA\26-Mar-2019\0\\#p B
 3LYP/6-31+G(d,p) Opt\\Benceno\\0,1\C,-3.4492183447,2.9203105856,0.\C,-
 3.4668746385,1.5220639072,0.\C,-2.2294703161,3.6041398808,0.\C,-1.0273
 833916,2.8897237435,0.\C,-1.0450404226,1.4914773141,0.\C,-2.2647883651
 ,0.8076464016,0.\H,-4.3832071993,3.4753931996,0.\H,-2.2157502416,4.690
 5395258,0.\H,-2.2785059604,-0.2787528183,0.\H,-4.4145849681,0.99074578
 31,0.\H,-0.0796729388,3.4210410154,0.\H,-0.1110532132,0.9363914616,0.\
 \Version=EM64L-G16RevB.01\State=1-A'\HF=-232.2683889\RMSD=1.218e-09\RM
 SF=2.139e-05\Dipole=0.0000001,-0.0000005,0.\Quadrupole=2.0073288,2.007
 3174,-4.0146462,-0.000022,0.,0.\PG=CS [SG(C6H6)]\\@


 WE'RE IN THE POSITION OF A VISITOR FROM ANOTHER
 DIMENSION WHO COMES TO EARTH AND SEES A CHESS MATCH.
 ASSUMING HE KNOWS IT'S A GAME, HE'S GOT TWO PROBLEMS:
 FIRST, FIGURE OUT THE RULES, AND SECOND, FIGURE OUT HOW TO WIN.
 NINETY PERCENT OF SCIENCE (INCLUDING VIRTUALLY ALL OF CHEMISRY)
 IS IN THAT SECOND CATEGORY.  THEY'RE TRYING TO APPLY
 THE LAWS THAT ARE ALREADY KNOWN.

                     -- SHELDON GLASHOW, 1979
 Job cpu time:       0 days  0 hours  2 minutes 11.7 seconds.
 Elapsed time:       0 days  0 hours  2 minutes 11.8 seconds.
 File lengths (MBytes):  RWF=     16 Int=      0 D2E=      0 Chk=      3 Scr=      1
 Normal termination of Gaussian 16 at Tue Mar 26 11:37:29 2019.
