Benceno                                                                 
FOpt      RB3LYP                                                      6-31+G(d,p)         
Number of atoms                            I               12
Info1-9                                    I   N=           9
          19          19           0           0           0         110
           2          18        -502
Full Title                                 C   N=           1
Benceno     
Route                                      C   N=           2
#p B3LYP/6-31+G(d,p) Opt
Charge                                     I                0
Multiplicity                               I                1
Number of electrons                        I               42
Number of alpha electrons                  I               21
Number of beta electrons                   I               21
Number of basis functions                  I              144
Number of independent functions            I              144
Number of point charges in /Mol/           I                0
Number of translation vectors              I                0
Atomic numbers                             I   N=          12
           6           6           6           6           6           6
           1           1           1           1           1           1
Nuclear charges                            R   N=          12
  6.00000000E+00  6.00000000E+00  6.00000000E+00  6.00000000E+00  6.00000000E+00
  6.00000000E+00  1.00000000E+00  1.00000000E+00  1.00000000E+00  1.00000000E+00
  1.00000000E+00  1.00000000E+00
Current cartesian coordinates              R   N=          36
 -1.32125749E+00 -2.28848735E+00  0.00000000E+00  1.32125644E+00 -2.28848164E+00
  0.00000000E+00 -2.64251333E+00 -7.64655500E-07  0.00000000E+00 -1.32125749E+00
  2.28848241E+00  0.00000000E+00  1.32125599E+00  2.28848673E+00  0.00000000E+00
  2.64251489E+00  3.42229772E-07  0.00000000E+00 -2.34783868E+00 -4.06657657E+00
  0.00000000E+00 -4.69567483E+00 -2.15230965E-06  0.00000000E+00  4.69567553E+00
  6.40439194E-06  0.00000000E+00  2.34783885E+00 -4.06657209E+00  0.00000000E+00
 -2.34783829E+00  4.06657312E+00  0.00000000E+00  2.34784334E+00  4.06657292E+00
  0.00000000E+00
Number of symbols in /Mol/                 I                0
Force Field                                I                0
Atom Types                                 C   N=          12
                                                            
                                                            
                        
Int Atom Types                             I   N=          12
           0           0           0           0           0           0
           0           0           0           0           0           0
MM charges                                 R   N=          12
  0.00000000E+00  0.00000000E+00  0.00000000E+00  0.00000000E+00  0.00000000E+00
  0.00000000E+00  0.00000000E+00  0.00000000E+00  0.00000000E+00  0.00000000E+00
  0.00000000E+00  0.00000000E+00
Integer atomic weights                     I   N=          12
          12          12          12          12          12          12
           1           1           1           1           1           1
Real atomic weights                        R   N=          12
  1.20000000E+01  1.20000000E+01  1.20000000E+01  1.20000000E+01  1.20000000E+01
  1.20000000E+01  1.00782504E+00  1.00782504E+00  1.00782504E+00  1.00782504E+00
  1.00782504E+00  1.00782504E+00
Atom fragment info                         I   N=          12
           0           0           0           0           0           0
           0           0           0           0           0           0
Atom residue num                           I   N=          12
           0           0           0           0           0           0
           0           0           0           0           0           0
Nuclear spins                              I   N=          12
           0           0           0           0           0           0
           1           1           1           1           1           1
Nuclear ZEff                               R   N=          12
 -3.60000000E+00 -3.60000000E+00 -3.60000000E+00 -3.60000000E+00 -3.60000000E+00
 -3.60000000E+00 -1.00000000E+00 -1.00000000E+00 -1.00000000E+00 -1.00000000E+00
 -1.00000000E+00 -1.00000000E+00
Nuclear ZNuc                               R   N=          12
  6.00000000E+00  6.00000000E+00  6.00000000E+00  6.00000000E+00  6.00000000E+00
  6.00000000E+00  1.00000000E+00  1.00000000E+00  1.00000000E+00  1.00000000E+00
  1.00000000E+00  1.00000000E+00
Nuclear QMom                               R   N=          12
  0.00000000E+00  0.00000000E+00  0.00000000E+00  0.00000000E+00  0.00000000E+00
  0.00000000E+00  0.00000000E+00  0.00000000E+00  0.00000000E+00  0.00000000E+00
  0.00000000E+00  0.00000000E+00
Nuclear GFac                               R   N=          12
  0.00000000E+00  0.00000000E+00  0.00000000E+00  0.00000000E+00  0.00000000E+00
  0.00000000E+00  2.79284600E+00  2.79284600E+00  2.79284600E+00  2.79284600E+00
  2.79284600E+00  2.79284600E+00
MicOpt                                     I   N=          12
          -1          -1          -1          -1          -1          -1
          -1          -1          -1          -1          -1          -1
Number of residues                         I                0
Number of secondary structures             I                0
Redundant internal dimensions              I   N=           4
          54          12          18          24
Redundant internal coordinate indices      I   N=         216
           1           2           0           0           1           3
           0           0           1           7           0           0
           2           6           0           0           2          10
           0           0           3           4           0           0
           3           8           0           0           4           5
           0           0           4          11           0           0
           5           6           0           0           5          12
           0           0           6           9           0           0
           2           1           3           0           2           1
           7           0           3           1           7           0
           1           2           6           0           1           2
          10           0           6           2          10           0
           1           3           4           0           1           3
           8           0           4           3           8           0
           3           4           5           0           3           4
          11           0           5           4          11           0
           4           5           6           0           4           5
          12           0           6           5          12           0
           2           6           5           0           2           6
           9           0           5           6           9           0
           3           1           2           6           3           1
           2          10           7           1           2           6
           7           1           2          10           2           1
           3           4           2           1           3           8
           7           1           3           4           7           1
           3           8           1           2           6           5
           1           2           6           9          10           2
           6           5          10           2           6           9
           1           3           4           5           1           3
           4          11           8           3           4           5
           8           3           4          11           3           4
           5           6           3           4           5          12
          11           4           5           6          11           4
           5          12           4           5           6           2
           4           5           6           9          12           5
           6           2          12           5           6           9
Redundant internal coordinates             R   N=          54
  2.64251393E+00  2.64251544E+00  2.05316103E+00  2.64251276E+00  2.05316271E+00
  2.64251249E+00  2.05316150E+00  2.64251348E+00  2.05316212E+00  2.64251680E+00
  2.05316149E+00  2.05316064E+00  2.09439212E+00  2.09439764E+00  2.09439554E+00
  2.09439817E+00  2.09439353E+00  2.09439360E+00  2.09439610E+00  2.09439361E+00
  2.09439560E+00  2.09439656E+00  2.09439542E+00  2.09439332E+00  2.09439369E+00
  2.09440045E+00  2.09439117E+00  2.09439398E+00  2.09439896E+00  2.09439237E+00
  0.00000000E+00  3.14159265E+00  3.14159265E+00  0.00000000E+00  0.00000000E+00
  3.14159265E+00  3.14159265E+00  0.00000000E+00  0.00000000E+00  3.14159265E+00
  3.14159265E+00  0.00000000E+00  0.00000000E+00  3.14159265E+00  3.14159265E+00
  0.00000000E+00  0.00000000E+00  3.14159265E+00  3.14159265E+00  0.00000000E+00
  0.00000000E+00  3.14159265E+00  3.14159265E+00  0.00000000E+00
ZRed-IntVec                                I   N=          54
           0           0           0           0           0           0
           0           0           0           0           0           0
           0           0           0           0           0           0
           0           0           0           0           0           0
           0           0           0           0           0           0
           0           0           0           0           0           0
           0           0           0           0           0           0
           0           0           0           0           0           0
           0           0           0           0           0           0
ZRed-FPVec                                 R   N=          54
  0.00000000E+00  0.00000000E+00  0.00000000E+00  0.00000000E+00  0.00000000E+00
  0.00000000E+00  0.00000000E+00  0.00000000E+00  0.00000000E+00  0.00000000E+00
  0.00000000E+00  0.00000000E+00  0.00000000E+00  0.00000000E+00  0.00000000E+00
  0.00000000E+00  0.00000000E+00  0.00000000E+00  0.00000000E+00  0.00000000E+00
  0.00000000E+00  0.00000000E+00  0.00000000E+00  0.00000000E+00  0.00000000E+00
  0.00000000E+00  0.00000000E+00  0.00000000E+00  0.00000000E+00  0.00000000E+00
  0.00000000E+00  0.00000000E+00  0.00000000E+00  0.00000000E+00  0.00000000E+00
  0.00000000E+00  0.00000000E+00  0.00000000E+00  0.00000000E+00  0.00000000E+00
  0.00000000E+00  0.00000000E+00  0.00000000E+00  0.00000000E+00  0.00000000E+00
  0.00000000E+00  0.00000000E+00  0.00000000E+00  0.00000000E+00  0.00000000E+00
  0.00000000E+00  0.00000000E+00  0.00000000E+00  0.00000000E+00
ZRed-Constraint1                           R   N=          54
  2.64380521E+00  2.64381332E+00  2.04531418E+00  2.64380133E+00  2.04533738E+00
  2.64379168E+00  2.04533813E+00  2.64380521E+00  2.04533738E+00  2.64382256E+00
  2.04532384E+00  2.04531900E+00  2.09438438E+00  2.09439990E+00  2.09440104E+00
  2.09440511E+00  2.09438675E+00  2.09439344E+00  2.09440196E+00  2.09439142E+00
  2.09439193E+00  2.09439897E+00  2.09439959E+00  2.09438675E+00  2.09439061E+00
  2.09440784E+00  2.09438686E+00  2.09438958E+00  2.09440719E+00  2.09438853E+00
  0.00000000E+00  3.14159265E+00  3.14159265E+00  0.00000000E+00  0.00000000E+00
  3.14159265E+00  3.14159265E+00  0.00000000E+00  0.00000000E+00  3.14159265E+00
  3.14159265E+00  0.00000000E+00  0.00000000E+00  3.14159265E+00  3.14159265E+00
  0.00000000E+00  0.00000000E+00  3.14159265E+00  3.14159265E+00  0.00000000E+00
  0.00000000E+00  3.14159265E+00  3.14159265E+00  0.00000000E+00
ZRed-Constraint2                           R   N=          54
  0.00000000E+00  0.00000000E+00  0.00000000E+00  0.00000000E+00  0.00000000E+00
  0.00000000E+00  0.00000000E+00  0.00000000E+00  0.00000000E+00  0.00000000E+00
  0.00000000E+00  0.00000000E+00  0.00000000E+00  0.00000000E+00  0.00000000E+00
  0.00000000E+00  0.00000000E+00  0.00000000E+00  0.00000000E+00  0.00000000E+00
  0.00000000E+00  0.00000000E+00  0.00000000E+00  0.00000000E+00  0.00000000E+00
  0.00000000E+00  0.00000000E+00  0.00000000E+00  0.00000000E+00  0.00000000E+00
  0.00000000E+00  0.00000000E+00  0.00000000E+00  0.00000000E+00  0.00000000E+00
  0.00000000E+00  0.00000000E+00  0.00000000E+00  0.00000000E+00  0.00000000E+00
  0.00000000E+00  0.00000000E+00  0.00000000E+00  0.00000000E+00  0.00000000E+00
  0.00000000E+00  0.00000000E+00  0.00000000E+00  0.00000000E+00  0.00000000E+00
  0.00000000E+00  0.00000000E+00  0.00000000E+00  0.00000000E+00
SymInf integers                            I   N=          26
           1           2           1           1           1           1
           1          -1           0           0           0           0
           0           0           0           0           0           0
           0           0           0           0           0           0
           0           0
RotTr to input orientation                 R   N=          12
 -1.26286075E-02 -9.99920256E-01  0.00000000E+00  9.99920256E-01 -1.26286075E-02
  0.00000000E+00  0.00000000E+00  0.00000000E+00  1.00000000E+00 -4.24645880E+00
  4.16853467E+00  0.00000000E+00
Number of contracted shells                I               48
Number of primitive shells                 I              102
Pure/Cartesian d shells                    I                1
Pure/Cartesian f shells                    I                0
Highest angular momentum                   I                2
Largest degree of contraction              I                6
Shell types                                I   N=          48
           0          -1          -1          -1           2           0
          -1          -1          -1           2           0          -1
          -1          -1           2           0          -1          -1
          -1           2           0          -1          -1          -1
           2           0          -1          -1          -1           2
           0           0           1           0           0           1
           0           0           1           0           0           1
           0           0           1           0           0           1
Number of primitives per shell             I   N=          48
           6           3           1           1           1           6
           3           1           1           1           6           3
           1           1           1           6           3           1
           1           1           6           3           1           1
           1           6           3           1           1           1
           3           1           1           3           1           1
           3           1           1           3           1           1
           3           1           1           3           1           1
Shell to atom map                          I   N=          48
           1           1           1           1           1           2
           2           2           2           2           3           3
           3           3           3           4           4           4
           4           4           5           5           5           5
           5           6           6           6           6           6
           7           7           7           8           8           8
           9           9           9          10          10          10
          11          11          11          12          12          12
Primitive exponents                        R   N=         102
  3.04752488E+03  4.57369518E+02  1.03948685E+02  2.92101553E+01  9.28666296E+00
  3.16392696E+00  7.86827235E+00  1.88128854E+00  5.44249258E-01  1.68714478E-01
  4.38000000E-02  8.00000000E-01  3.04752488E+03  4.57369518E+02  1.03948685E+02
  2.92101553E+01  9.28666296E+00  3.16392696E+00  7.86827235E+00  1.88128854E+00
  5.44249258E-01  1.68714478E-01  4.38000000E-02  8.00000000E-01  3.04752488E+03
  4.57369518E+02  1.03948685E+02  2.92101553E+01  9.28666296E+00  3.16392696E+00
  7.86827235E+00  1.88128854E+00  5.44249258E-01  1.68714478E-01  4.38000000E-02
  8.00000000E-01  3.04752488E+03  4.57369518E+02  1.03948685E+02  2.92101553E+01
  9.28666296E+00  3.16392696E+00  7.86827235E+00  1.88128854E+00  5.44249258E-01
  1.68714478E-01  4.38000000E-02  8.00000000E-01  3.04752488E+03  4.57369518E+02
  1.03948685E+02  2.92101553E+01  9.28666296E+00  3.16392696E+00  7.86827235E+00
  1.88128854E+00  5.44249258E-01  1.68714478E-01  4.38000000E-02  8.00000000E-01
  3.04752488E+03  4.57369518E+02  1.03948685E+02  2.92101553E+01  9.28666296E+00
  3.16392696E+00  7.86827235E+00  1.88128854E+00  5.44249258E-01  1.68714478E-01
  4.38000000E-02  8.00000000E-01  1.87311370E+01  2.82539436E+00  6.40121692E-01
  1.61277759E-01  1.10000000E+00  1.87311370E+01  2.82539436E+00  6.40121692E-01
  1.61277759E-01  1.10000000E+00  1.87311370E+01  2.82539436E+00  6.40121692E-01
  1.61277759E-01  1.10000000E+00  1.87311370E+01  2.82539436E+00  6.40121692E-01
  1.61277759E-01  1.10000000E+00  1.87311370E+01  2.82539436E+00  6.40121692E-01
  1.61277759E-01  1.10000000E+00  1.87311370E+01  2.82539436E+00  6.40121692E-01
  1.61277759E-01  1.10000000E+00
Contraction coefficients                   R   N=         102
  1.83473713E-03  1.40373228E-02  6.88426223E-02  2.32184443E-01  4.67941348E-01
  3.62311985E-01 -1.19332420E-01 -1.60854152E-01  1.14345644E+00  1.00000000E+00
  1.00000000E+00  1.00000000E+00  1.83473713E-03  1.40373228E-02  6.88426223E-02
  2.32184443E-01  4.67941348E-01  3.62311985E-01 -1.19332420E-01 -1.60854152E-01
  1.14345644E+00  1.00000000E+00  1.00000000E+00  1.00000000E+00  1.83473713E-03
  1.40373228E-02  6.88426223E-02  2.32184443E-01  4.67941348E-01  3.62311985E-01
 -1.19332420E-01 -1.60854152E-01  1.14345644E+00  1.00000000E+00  1.00000000E+00
  1.00000000E+00  1.83473713E-03  1.40373228E-02  6.88426223E-02  2.32184443E-01
  4.67941348E-01  3.62311985E-01 -1.19332420E-01 -1.60854152E-01  1.14345644E+00
  1.00000000E+00  1.00000000E+00  1.00000000E+00  1.83473713E-03  1.40373228E-02
  6.88426223E-02  2.32184443E-01  4.67941348E-01  3.62311985E-01 -1.19332420E-01
 -1.60854152E-01  1.14345644E+00  1.00000000E+00  1.00000000E+00  1.00000000E+00
  1.83473713E-03  1.40373228E-02  6.88426223E-02  2.32184443E-01  4.67941348E-01
  3.62311985E-01 -1.19332420E-01 -1.60854152E-01  1.14345644E+00  1.00000000E+00
  1.00000000E+00  1.00000000E+00  3.34946043E-02  2.34726953E-01  8.13757326E-01
  1.00000000E+00  1.00000000E+00  3.34946043E-02  2.34726953E-01  8.13757326E-01
  1.00000000E+00  1.00000000E+00  3.34946043E-02  2.34726953E-01  8.13757326E-01
  1.00000000E+00  1.00000000E+00  3.34946043E-02  2.34726953E-01  8.13757326E-01
  1.00000000E+00  1.00000000E+00  3.34946043E-02  2.34726953E-01  8.13757326E-01
  1.00000000E+00  1.00000000E+00  3.34946043E-02  2.34726953E-01  8.13757326E-01
  1.00000000E+00  1.00000000E+00
P(S=P) Contraction coefficients            R   N=         102
  0.00000000E+00  0.00000000E+00  0.00000000E+00  0.00000000E+00  0.00000000E+00
  0.00000000E+00  6.89990666E-02  3.16423961E-01  7.44308291E-01  1.00000000E+00
  1.00000000E+00  0.00000000E+00  0.00000000E+00  0.00000000E+00  0.00000000E+00
  0.00000000E+00  0.00000000E+00  0.00000000E+00  6.89990666E-02  3.16423961E-01
  7.44308291E-01  1.00000000E+00  1.00000000E+00  0.00000000E+00  0.00000000E+00
  0.00000000E+00  0.00000000E+00  0.00000000E+00  0.00000000E+00  0.00000000E+00
  6.89990666E-02  3.16423961E-01  7.44308291E-01  1.00000000E+00  1.00000000E+00
  0.00000000E+00  0.00000000E+00  0.00000000E+00  0.00000000E+00  0.00000000E+00
  0.00000000E+00  0.00000000E+00  6.89990666E-02  3.16423961E-01  7.44308291E-01
  1.00000000E+00  1.00000000E+00  0.00000000E+00  0.00000000E+00  0.00000000E+00
  0.00000000E+00  0.00000000E+00  0.00000000E+00  0.00000000E+00  6.89990666E-02
  3.16423961E-01  7.44308291E-01  1.00000000E+00  1.00000000E+00  0.00000000E+00
  0.00000000E+00  0.00000000E+00  0.00000000E+00  0.00000000E+00  0.00000000E+00
  0.00000000E+00  6.89990666E-02  3.16423961E-01  7.44308291E-01  1.00000000E+00
  1.00000000E+00  0.00000000E+00  0.00000000E+00  0.00000000E+00  0.00000000E+00
  0.00000000E+00  0.00000000E+00  0.00000000E+00  0.00000000E+00  0.00000000E+00
  0.00000000E+00  0.00000000E+00  0.00000000E+00  0.00000000E+00  0.00000000E+00
  0.00000000E+00  0.00000000E+00  0.00000000E+00  0.00000000E+00  0.00000000E+00
  0.00000000E+00  0.00000000E+00  0.00000000E+00  0.00000000E+00  0.00000000E+00
  0.00000000E+00  0.00000000E+00  0.00000000E+00  0.00000000E+00  0.00000000E+00
  0.00000000E+00  0.00000000E+00
Coordinates of each shell                  R   N=         144
 -1.32125749E+00 -2.28848735E+00  0.00000000E+00 -1.32125749E+00 -2.28848735E+00
  0.00000000E+00 -1.32125749E+00 -2.28848735E+00  0.00000000E+00 -1.32125749E+00
 -2.28848735E+00  0.00000000E+00 -1.32125749E+00 -2.28848735E+00  0.00000000E+00
  1.32125644E+00 -2.28848164E+00  0.00000000E+00  1.32125644E+00 -2.28848164E+00
  0.00000000E+00  1.32125644E+00 -2.28848164E+00  0.00000000E+00  1.32125644E+00
 -2.28848164E+00  0.00000000E+00  1.32125644E+00 -2.28848164E+00  0.00000000E+00
 -2.64251333E+00 -7.64655500E-07  0.00000000E+00 -2.64251333E+00 -7.64655500E-07
  0.00000000E+00 -2.64251333E+00 -7.64655500E-07  0.00000000E+00 -2.64251333E+00
 -7.64655500E-07  0.00000000E+00 -2.64251333E+00 -7.64655500E-07  0.00000000E+00
 -1.32125749E+00  2.28848241E+00  0.00000000E+00 -1.32125749E+00  2.28848241E+00
  0.00000000E+00 -1.32125749E+00  2.28848241E+00  0.00000000E+00 -1.32125749E+00
  2.28848241E+00  0.00000000E+00 -1.32125749E+00  2.28848241E+00  0.00000000E+00
  1.32125599E+00  2.28848673E+00  0.00000000E+00  1.32125599E+00  2.28848673E+00
  0.00000000E+00  1.32125599E+00  2.28848673E+00  0.00000000E+00  1.32125599E+00
  2.28848673E+00  0.00000000E+00  1.32125599E+00  2.28848673E+00  0.00000000E+00
  2.64251489E+00  3.42229772E-07  0.00000000E+00  2.64251489E+00  3.42229772E-07
  0.00000000E+00  2.64251489E+00  3.42229772E-07  0.00000000E+00  2.64251489E+00
  3.42229772E-07  0.00000000E+00  2.64251489E+00  3.42229772E-07  0.00000000E+00
 -2.34783868E+00 -4.06657657E+00  0.00000000E+00 -2.34783868E+00 -4.06657657E+00
  0.00000000E+00 -2.34783868E+00 -4.06657657E+00  0.00000000E+00 -4.69567483E+00
 -2.15230965E-06  0.00000000E+00 -4.69567483E+00 -2.15230965E-06  0.00000000E+00
 -4.69567483E+00 -2.15230965E-06  0.00000000E+00  4.69567553E+00  6.40439194E-06
  0.00000000E+00  4.69567553E+00  6.40439194E-06  0.00000000E+00  4.69567553E+00
  6.40439194E-06  0.00000000E+00  2.34783885E+00 -4.06657209E+00  0.00000000E+00
  2.34783885E+00 -4.06657209E+00  0.00000000E+00  2.34783885E+00 -4.06657209E+00
  0.00000000E+00 -2.34783829E+00  4.06657312E+00  0.00000000E+00 -2.34783829E+00
  4.06657312E+00  0.00000000E+00 -2.34783829E+00  4.06657312E+00  0.00000000E+00
  2.34784334E+00  4.06657292E+00  0.00000000E+00  2.34784334E+00  4.06657292E+00
  0.00000000E+00  2.34784334E+00  4.06657292E+00  0.00000000E+00
Num ILSW                                   I              100
ILSW                                       I   N=         100
           0           1           0           1           2           0
           0           0           0           0         402          -1
           5           0           0           0           2           0
           0           0           0           0           1           0
           1           0           0           0           0           0
           0           0      100000           0          -1           0
           0           0           0           0           0           0
           0           0           0           1           0           0
           0 -2000000000           1           0           0           0
           0           0           4          52           0           0
           0           0           5           0           0           0
           0           0           0          12           0           1
           0           0           0           0           0           0
           0           0           0           0           0           0
           0           0           0           0           0           0
           0           0           0           0           0           0
           0           0           0           0
Num RLSW                                   I               52
RLSW                                       R   N=          52
  8.00000000E-01  7.20000000E-01  1.00000000E+00  8.10000000E-01  2.00000000E-01
  0.00000000E+00  0.00000000E+00  1.00000000E+00  0.00000000E+00  0.00000000E+00
  0.00000000E+00  0.00000000E+00  1.00000000E+00  0.00000000E+00  0.00000000E+00
  0.00000000E+00  0.00000000E+00  1.00000000E+00  0.00000000E+00  0.00000000E+00
  0.00000000E+00  0.00000000E+00  1.00000000E+00  0.00000000E+00  0.00000000E+00
  0.00000000E+00  0.00000000E+00  1.00000000E+00  0.00000000E+00  0.00000000E+00
  0.00000000E+00  0.00000000E+00  1.00000000E+00  0.00000000E+00  0.00000000E+00
  0.00000000E+00  0.00000000E+00  0.00000000E+00  1.00000000E+00  1.00000000E+00
  0.00000000E+00  1.00000000E+00  0.00000000E+00  0.00000000E+00  0.00000000E+00
  0.00000000E+00  0.00000000E+00  0.00000000E+00  0.00000000E+00  0.00000000E+00
  0.00000000E+00  0.00000000E+00
MxBond                                     I                3
NBond                                      I   N=          12
           3           3           3           3           3           3
           1           1           1           1           1           1
IBond                                      I   N=          36
           2           3           7           1           6          10
           1           4           8           3           5          11
           4           6          12           2           5           9
           1           0           0           3           0           0
           6           0           0           2           0           0
           4           0           0           5           0           0
RBond                                      R   N=          36
  1.50000000E+00  1.50000000E+00  1.00000000E+00  1.50000000E+00  1.50000000E+00
  1.00000000E+00  1.50000000E+00  1.50000000E+00  1.00000000E+00  1.50000000E+00
  1.50000000E+00  1.00000000E+00  1.50000000E+00  1.50000000E+00  1.00000000E+00
  1.50000000E+00  1.50000000E+00  1.00000000E+00  1.00000000E+00  0.00000000E+00
  0.00000000E+00  1.00000000E+00  0.00000000E+00  0.00000000E+00  1.00000000E+00
  0.00000000E+00  0.00000000E+00  1.00000000E+00  0.00000000E+00  0.00000000E+00
  1.00000000E+00  0.00000000E+00  0.00000000E+00  1.00000000E+00  0.00000000E+00
  0.00000000E+00
Virial Ratio                               R      2.010251701002669E+00
SCF Energy                                 R     -2.322683888879810E+02
Total Energy                               R     -2.322683888879810E+02
RMS Force                                  R      2.139406374747798E-05
RMS Density                                R      1.217822797954381E-09
Job Status                                 I                1
Nuclear derivative order                   I                1
External E-field                           R   N=          35
  0.00000000E+00  0.00000000E+00  0.00000000E+00  0.00000000E+00  0.00000000E+00
  0.00000000E+00  0.00000000E+00  0.00000000E+00  0.00000000E+00  0.00000000E+00
  0.00000000E+00  0.00000000E+00  0.00000000E+00  0.00000000E+00  0.00000000E+00
  0.00000000E+00  0.00000000E+00  0.00000000E+00  0.00000000E+00  0.00000000E+00
  0.00000000E+00  0.00000000E+00  0.00000000E+00  0.00000000E+00  0.00000000E+00
  0.00000000E+00  0.00000000E+00  0.00000000E+00  0.00000000E+00  0.00000000E+00
  0.00000000E+00  0.00000000E+00  0.00000000E+00  0.00000000E+00  0.00000000E+00
IOpCl                                      I                0
IROHF                                      I                0
Alpha Orbital Energies                     R   N=         144
 -1.01988249E+01 -1.01985592E+01 -1.01985591E+01 -1.01980055E+01 -1.01980054E+01
 -1.01977412E+01 -8.57005729E-01 -7.49903246E-01 -7.49903063E-01 -6.06694895E-01
 -6.06694627E-01 -5.26595141E-01 -4.66477102E-01 -4.48798414E-01 -4.25780801E-01
 -4.25780350E-01 -3.69741316E-01 -3.48937992E-01 -3.48936745E-01 -2.57631945E-01
 -2.57631716E-01 -1.54765151E-02 -1.54759545E-02  8.44348493E-03  2.56294476E-02
  2.56295348E-02  4.53989190E-02  4.53991199E-02  6.65587683E-02  7.77819293E-02
  7.94345590E-02  9.20250583E-02  9.20253609E-02  9.90374175E-02  1.24839555E-01
  1.42730865E-01  1.42733806E-01  1.44096439E-01  1.44096539E-01  1.55145682E-01
  1.55147448E-01  1.96353804E-01  1.96354370E-01  1.96619319E-01  2.04906271E-01
  2.11414135E-01  2.11416839E-01  2.35282198E-01  2.44500047E-01  2.44500353E-01
  2.66163627E-01  2.79316299E-01  2.79317796E-01  3.25368190E-01  3.47090234E-01
  3.47091284E-01  3.48326466E-01  3.48327155E-01  5.62333703E-01  5.67808819E-01
  6.01236401E-01  6.19829047E-01  6.58726852E-01  7.16992001E-01  7.16992306E-01
  7.18460747E-01  7.18462173E-01  7.46150948E-01  7.46151220E-01  7.66407554E-01
  7.66408547E-01  8.00089661E-01  8.26186319E-01  8.81466495E-01  9.13829929E-01
  9.13830198E-01  9.49035053E-01  9.49035653E-01  9.75587348E-01  1.02263188E+00
  1.07044543E+00  1.07044642E+00  1.12174957E+00  1.12175098E+00  1.16609768E+00
  1.16609791E+00  1.25078241E+00  1.29494768E+00  1.30995041E+00  1.39687879E+00
  1.39687919E+00  1.41838770E+00  1.41838892E+00  1.43109259E+00  1.43109368E+00
  1.74181364E+00  1.78404035E+00  1.84398418E+00  1.88689670E+00  1.94196268E+00
  1.94196369E+00  1.98019845E+00  1.98019883E+00  2.00231072E+00  2.00231123E+00