 Entering Gaussian System, Link 0=g16
 Input=H2.com
 Output=H2.log
 Initial command:
 /opt/g16/l1.exe "/home/montoya/Montoya/H2/Gau-1054.inp" -scrdir="/home/montoya/Montoya/H2/"
 Entering Link 1 = /opt/g16/l1.exe PID=      1056.
  
 Copyright (c) 1988-2017, Gaussian, Inc.  All Rights Reserved.
  
 This is part of the Gaussian(R) 16 program.  It is based on
 the Gaussian(R) 09 system (copyright 2009, Gaussian, Inc.),
 the Gaussian(R) 03 system (copyright 2003, Gaussian, Inc.),
 the Gaussian(R) 98 system (copyright 1998, Gaussian, Inc.),
 the Gaussian(R) 94 system (copyright 1995, Gaussian, Inc.),
 the Gaussian 92(TM) system (copyright 1992, Gaussian, Inc.),
 the Gaussian 90(TM) system (copyright 1990, Gaussian, Inc.),
 the Gaussian 88(TM) system (copyright 1988, Gaussian, Inc.),
 the Gaussian 86(TM) system (copyright 1986, Carnegie Mellon
 University), and the Gaussian 82(TM) system (copyright 1983,
 Carnegie Mellon University). Gaussian is a federally registered
 trademark of Gaussian, Inc.
  
 This software contains proprietary and confidential information,
 including trade secrets, belonging to Gaussian, Inc.
  
 This software is provided under written license and may be
 used, copied, transmitted, or stored only in accord with that
 written license.
  
 The following legend is applicable only to US Government
 contracts under FAR:
  
                    RESTRICTED RIGHTS LEGEND
  
 Use, reproduction and disclosure by the US Government is
 subject to restrictions as set forth in subparagraphs (a)
 and (c) of the Commercial Computer Software - Restricted
 Rights clause in FAR 52.227-19.
  
 Gaussian, Inc.
 340 Quinnipiac St., Bldg. 40, Wallingford CT 06492
  
  
 ---------------------------------------------------------------
 Warning -- This program may not be used in any manner that
 competes with the business of Gaussian, Inc. or will provide
 assistance to any competitor of Gaussian, Inc.  The licensee
 of this program is prohibited from giving any competitor of
 Gaussian, Inc. access to this program.  By using this program,
 the user acknowledges that Gaussian, Inc. is engaged in the
 business of creating and licensing software in the field of
 computational chemistry and represents and warrants to the
 licensee that it is not a competitor of Gaussian, Inc. and that
 it will not use this program in any manner prohibited above.
 ---------------------------------------------------------------
  

 Cite this work as:
 Gaussian 16, Revision B.01,
 M. J. Frisch, G. W. Trucks, H. B. Schlegel, G. E. Scuseria, 
 M. A. Robb, J. R. Cheeseman, G. Scalmani, V. Barone, 
 G. A. Petersson, H. Nakatsuji, X. Li, M. Caricato, A. V. Marenich, 
 J. Bloino, B. G. Janesko, R. Gomperts, B. Mennucci, H. P. Hratchian, 
 J. V. Ortiz, A. F. Izmaylov, J. L. Sonnenberg, D. Williams-Young, 
 F. Ding, F. Lipparini, F. Egidi, J. Goings, B. Peng, A. Petrone, 
 T. Henderson, D. Ranasinghe, V. G. Zakrzewski, J. Gao, N. Rega, 
 G. Zheng, W. Liang, M. Hada, M. Ehara, K. Toyota, R. Fukuda, 
 J. Hasegawa, M. Ishida, T. Nakajima, Y. Honda, O. Kitao, H. Nakai, 
 T. Vreven, K. Throssell, J. A. Montgomery, Jr., J. E. Peralta, 
 F. Ogliaro, M. J. Bearpark, J. J. Heyd, E. N. Brothers, K. N. Kudin, 
 V. N. Staroverov, T. A. Keith, R. Kobayashi, J. Normand, 
 K. Raghavachari, A. P. Rendell, J. C. Burant, S. S. Iyengar, 
 J. Tomasi, M. Cossi, J. M. Millam, M. Klene, C. Adamo, R. Cammi, 
 J. W. Ochterski, R. L. Martin, K. Morokuma, O. Farkas, 
 J. B. Foresman, and D. J. Fox, Gaussian, Inc., Wallingford CT, 2016.
 
 ******************************************
 Gaussian 16:  EM64L-G16RevB.01 20-Dec-2017
                 4-Mar-2019 
 ******************************************
 %Chk=H2.chk
 ---------------------------------------------
 #p opt=modredundant B3LYP/6-31+G(d,p) Pop=NPA
 ---------------------------------------------
 1/18=120,19=15,26=3,38=1/1,3;
 2/9=110,12=2,17=6,18=5,40=1/2;
 3/5=1,6=6,7=111,11=2,25=1,30=1,71=1,74=-5/1,2,3;
 4//1;
 5/5=2,38=5/2;
 6/7=2,8=2,9=2,10=2,28=1,40=-1/1,7;
 7//1,2,3,16;
 1/18=20,19=15,26=3/3(2);
 2/9=110/2;
 99//99;
 2/9=110/2;
 3/5=1,6=6,7=111,11=2,25=1,30=1,71=1,74=-5/1,2,3;
 4/5=5,16=3,69=1/1;
 5/5=2,38=5/2;
 7//1,2,3,16;
 1/18=20,19=15,26=3/3(-5);
 2/9=110/2;
 6/7=2,8=2,9=2,10=2,19=2,28=1,40=-1/1,7;
 99/9=1/99;
 Leave Link    1 at Mon Mar  4 11:44:28 2019, MaxMem=           0 cpu:               0.0 elap:               0.1
 (Enter /opt/g16/l101.exe)
 --
 H2
 --
 Symbolic Z-matrix:
 Charge =  0 Multiplicity = 1
 H                    -2.41397   2.948     0. 
 H                     0.59672   2.96334   0.00251 
 
 Add virtual bond connecting atoms H2         and H1         Dist= 5.69D+00.
 The following ModRedundant input section has been read:
 B       1       2 S  28 -0.100                                                
 
 ITRead=  0  0
 MicOpt= -1 -1
 NAtoms=      2 NQM=        2 NQMF=       0 NMMI=      0 NMMIF=      0
                NMic=       0 NMicF=      0.
                    Isotopes and Nuclear Properties:
 (Nuclear quadrupole moments (NQMom) in fm**2, nuclear magnetic moments (NMagM)
  in nuclear magnetons)

  Atom         1           2
 IAtWgt=           1           1
 AtmWgt=   1.0078250   1.0078250
 NucSpn=           1           1
 AtZEff=  -0.0000000  -0.0000000
 NQMom=    0.0000000   0.0000000
 NMagM=    2.7928460   2.7928460
 AtZNuc=   1.0000000   1.0000000
 Leave Link  101 at Mon Mar  4 11:44:30 2019, MaxMem=   104857600 cpu:               0.2 elap:               0.2
 (Enter /opt/g16/l103.exe)

 GradGradGradGradGradGradGradGradGradGradGradGradGradGradGradGradGradGrad
 Berny optimization.
 Initialization pass.
                           ----------------------------
                           !    Initial Parameters    !
                           ! (Angstroms and Degrees)  !
 --------------------------                            --------------------------
 ! Name  Definition              Value          Derivative Info.                !
 --------------------------------------------------------------------------------
 ! R1    R(1,2)                  3.0107         Scan                            !
 --------------------------------------------------------------------------------
 Trust Radius=3.00D-01 FncErr=1.00D-07 GrdErr=1.00D-06 EigMax=2.50D+02 EigMin=1.00D-04
 Number of optimizations in scan=  29
 Number of steps in this run=     20 maximum allowed number of steps=    100.
 GradGradGradGradGradGradGradGradGradGradGradGradGradGradGradGradGradGrad

 Leave Link  103 at Mon Mar  4 11:44:30 2019, MaxMem=   104857600 cpu:               0.0 elap:               0.0
 (Enter /opt/g16/l202.exe)
                          Input orientation:                          
 ---------------------------------------------------------------------
 Center     Atomic      Atomic             Coordinates (Angstroms)
 Number     Number       Type             X           Y           Z
 ---------------------------------------------------------------------
      1          1           0       -2.413970    2.948000    0.000000
      2          1           0        0.596720    2.963340    0.002510
 ---------------------------------------------------------------------
 Stoichiometry    H2
 Framework group  D*H[C*(H.H)]
 Deg. of freedom     1
 Full point group                 D*H     NOp   8
 Largest Abelian subgroup         D2H     NOp   8
 Largest concise Abelian subgroup C2      NOp   2
                         Standard orientation:                         
 ---------------------------------------------------------------------
 Center     Atomic      Atomic             Coordinates (Angstroms)
 Number     Number       Type             X           Y           Z
 ---------------------------------------------------------------------
      1          1           0        0.000000    0.000000    1.505365
      2          1           0        0.000000   -0.000000   -1.505365
 ---------------------------------------------------------------------
 Rotational constants (GHZ):           0.0000000         110.6415868         110.6415868
 Leave Link  202 at Mon Mar  4 11:44:30 2019, MaxMem=   104857600 cpu:               0.0 elap:               0.0
 (Enter /opt/g16/l301.exe)
 Standard basis: 6-31+G(d,p) (6D, 7F)
 Ernie: Thresh=  0.10000D-02 Tol=  0.10000D-05 Strict=F.
 There are     3 symmetry adapted cartesian basis functions of AG  symmetry.
 There are     0 symmetry adapted cartesian basis functions of B1G symmetry.
 There are     1 symmetry adapted cartesian basis functions of B2G symmetry.
 There are     1 symmetry adapted cartesian basis functions of B3G symmetry.
 There are     0 symmetry adapted cartesian basis functions of AU  symmetry.
 There are     3 symmetry adapted cartesian basis functions of B1U symmetry.
 There are     1 symmetry adapted cartesian basis functions of B2U symmetry.
 There are     1 symmetry adapted cartesian basis functions of B3U symmetry.
 There are     3 symmetry adapted basis functions of AG  symmetry.
 There are     0 symmetry adapted basis functions of B1G symmetry.
 There are     1 symmetry adapted basis functions of B2G symmetry.
 There are     1 symmetry adapted basis functions of B3G symmetry.
 There are     0 symmetry adapted basis functions of AU  symmetry.
 There are     3 symmetry adapted basis functions of B1U symmetry.
 There are     1 symmetry adapted basis functions of B2U symmetry.
 There are     1 symmetry adapted basis functions of B3U symmetry.
    10 basis functions,    14 primitive gaussians,    10 cartesian basis functions
     1 alpha electrons        1 beta electrons
       nuclear repulsion energy         0.1757637479 Hartrees.
 IExCor=  402 DFT=T Ex+Corr=B3LYP ExCW=0 ScaHFX=  0.200000
 ScaDFX=  0.800000  0.720000  1.000000  0.810000 ScalE2=  1.000000  1.000000
 IRadAn=      5 IRanWt=     -1 IRanGd=            0 ICorTp=0 IEmpDi=  4
 NAtoms=    2 NActive=    2 NUniq=    1 SFac= 4.00D+00 NAtFMM=   60 NAOKFM=F Big=F
 Integral buffers will be    131072 words long.
 Raffenetti 2 integral format.
 Two-electron integral symmetry is turned on.
 Leave Link  301 at Mon Mar  4 11:44:30 2019, MaxMem=   104857600 cpu:               0.1 elap:               0.1
 (Enter /opt/g16/l302.exe)
 NPDir=0 NMtPBC=     1 NCelOv=     1 NCel=       1 NClECP=     1 NCelD=      1
         NCelK=      1 NCelE2=     1 NClLst=     1 CellRange=     0.0.
 One-electron integrals computed using PRISM.
 One-electron integral symmetry used in STVInt
 NBasis=    10 RedAO= T EigKep=  3.13D-01  NBF=     3     0     1     1     0     3     1     1
 NBsUse=    10 1.00D-06 EigRej= -1.00D+00 NBFU=     3     0     1     1     0     3     1     1
 Precomputing XC quadrature grid using
 IXCGrd= 4 IRadAn=           5 IRanWt=          -1 IRanGd=           0 AccXCQ= 0.00D+00.
 Generated NRdTot=       0 NPtTot=           0 NUsed=           0 NTot=          32
 NSgBfM=    10    10    10    10    10 MxSgAt=     2 MxSgA2=     2.
 Leave Link  302 at Mon Mar  4 11:44:30 2019, MaxMem=   104857600 cpu:               0.1 elap:               0.1
 (Enter /opt/g16/l303.exe)
 DipDrv:  MaxL=1.
 Leave Link  303 at Mon Mar  4 11:44:30 2019, MaxMem=   104857600 cpu:               0.0 elap:               0.0
 (Enter /opt/g16/l401.exe)
 ExpMin= 1.61D-01 ExpMax= 1.87D+01 ExpMxC= 1.87D+01 IAcc=3 IRadAn=         5 AccDes= 0.00D+00
 Harris functional with IExCor=  402 and IRadAn=       5 diagonalized for initial guess.
 HarFok:  IExCor=  402 AccDes= 0.00D+00 IRadAn=         5 IDoV= 1 UseB2=F ITyADJ=14
 ICtDFT=  3500011 ScaDFX=  1.000000  1.000000  1.000000  1.000000
 FoFCou: FMM=F IPFlag=           0 FMFlag=      100000 FMFlg1=           0
         NFxFlg=           0 DoJE=T BraDBF=F KetDBF=T FulRan=T
         wScrn=  0.000000 ICntrl=       500 IOpCl=  0 I1Cent=   200000004 NGrid=           0
         NMat0=    1 NMatS0=      1 NMatT0=    0 NMatD0=    1 NMtDS0=    0 NMtDT0=    0
 Petite list used in FoFCou.
 Harris En=-0.939801779681920    
 JPrj=0 DoOrth=F DoCkMO=F.
 Initial guess orbital symmetries:
       Occupied  (SGG)
       Virtual   (SGU) (SGG) (SGU) (PIU) (PIU) (PIG) (PIG) (SGG)
                 (SGU)
 The electronic state of the initial guess is 1-SGG.
 Leave Link  401 at Mon Mar  4 11:44:31 2019, MaxMem=   104857600 cpu:               0.2 elap:               0.2
 (Enter /opt/g16/l502.exe)
 Keep R1 ints in memory in symmetry-blocked form, NReq=864985.
 FoFCou: FMM=F IPFlag=           0 FMFlag=           0 FMFlg1=           0
         NFxFlg=           0 DoJE=F BraDBF=F KetDBF=F FulRan=T
         wScrn=  0.000000 ICntrl=       600 IOpCl=  0 I1Cent=           0 NGrid=           0
         NMat0=    1 NMatS0=     55 NMatT0=    0 NMatD0=    1 NMtDS0=    0 NMtDT0=    0
 Petite list used in FoFCou.
 Closed shell SCF:
 Using DIIS extrapolation, IDIIS=  1040.
 NGot=   104857600 LenX=   104855094 LenY=   104854212
 Requested convergence on RMS density matrix=1.00D-08 within 128 cycles.
 Requested convergence on MAX density matrix=1.00D-06.
 Requested convergence on             energy=1.00D-06.
 No special actions if energy rises.
 Integral accuracy reduced to 1.0D-05 until final iterations.

 Cycle   1  Pass 0  IDiag  1:
 E=-0.927430091774947    
 DIIS: error= 5.95D-03 at cycle   1 NSaved=   1.
 NSaved= 1 IEnMin= 1 EnMin=-0.927430091774947     IErMin= 1 ErrMin= 5.95D-03
 ErrMax= 5.95D-03  0.00D+00 EMaxC= 1.00D-01 BMatC= 1.42D-04 BMatP= 1.42D-04
 IDIUse=3 WtCom= 9.40D-01 WtEn= 5.95D-02
 Coeff-Com:  0.100D+01
 Coeff-En:   0.100D+01
 Coeff:      0.100D+01
 Gap=     0.059 Goal=   None    Shift=    0.000
 GapD=    0.059 DampG=0.500 DampE=1.000 DampFc=0.5000 IDamp=-1.
 Damping current iteration by 5.00D-01
 RMSDP=2.29D-03 MaxDP=8.99D-03              OVMax= 1.23D-02

 Cycle   2  Pass 0  IDiag  1:
 E=-0.927572206563453     Delta-E=       -0.000142114789 Rises=F Damp=T
 DIIS: error= 2.79D-03 at cycle   2 NSaved=   2.
 NSaved= 2 IEnMin= 2 EnMin=-0.927572206563453     IErMin= 2 ErrMin= 2.79D-03
 ErrMax= 2.79D-03  0.00D+00 EMaxC= 1.00D-01 BMatC= 3.13D-05 BMatP= 1.42D-04
 IDIUse=3 WtCom= 9.72D-01 WtEn= 2.79D-02
 Coeff-Com: -0.885D+00 0.188D+01
 Coeff-En:   0.000D+00 0.100D+01
 Coeff:     -0.860D+00 0.186D+01
 Gap=     0.059 Goal=   None    Shift=    0.000
 RMSDP=1.01D-03 MaxDP=3.98D-03 DE=-1.42D-04 OVMax= 7.04D-04

 Cycle   3  Pass 0  IDiag  1:
 E=-0.927706463422841     Delta-E=       -0.000134256859 Rises=F Damp=F
 DIIS: error= 2.24D-06 at cycle   3 NSaved=   3.
 NSaved= 3 IEnMin= 3 EnMin=-0.927706463422841     IErMin= 3 ErrMin= 2.24D-06
 ErrMax= 2.24D-06  0.00D+00 EMaxC= 1.00D-01 BMatC= 2.12D-11 BMatP= 3.13D-05
 IDIUse=1 WtCom= 1.00D+00 WtEn= 0.00D+00
 Coeff-Com:  0.455D-01-0.968D-01 0.105D+01
 Coeff:      0.455D-01-0.968D-01 0.105D+01
 Gap=     0.059 Goal=   None    Shift=    0.000
 RMSDP=2.55D-07 MaxDP=7.26D-07 DE=-1.34D-04 OVMax= 6.11D-07

 Initial convergence to 1.0D-05 achieved.  Increase integral accuracy.
 Cycle   4  Pass 1  IDiag  1:
 E=-0.927706825588752     Delta-E=       -0.000000362166 Rises=F Damp=F
 DIIS: error= 3.85D-06 at cycle   1 NSaved=   1.
 NSaved= 1 IEnMin= 1 EnMin=-0.927706825588752     IErMin= 1 ErrMin= 3.85D-06
 ErrMax= 3.85D-06  0.00D+00 EMaxC= 1.00D-01 BMatC= 8.36D-11 BMatP= 8.36D-11
 IDIUse=1 WtCom= 1.00D+00 WtEn= 0.00D+00
 Coeff-Com:  0.100D+01
 Coeff:      0.100D+01
 Gap=     0.059 Goal=   None    Shift=    0.000
 RMSDP=2.55D-07 MaxDP=7.26D-07 DE=-3.62D-07 OVMax= 5.24D-06

 Cycle   5  Pass 1  IDiag  1:
 E=-0.927706825691933     Delta-E=       -0.000000000103 Rises=F Damp=F
 DIIS: error= 1.58D-07 at cycle   2 NSaved=   2.
 NSaved= 2 IEnMin= 2 EnMin=-0.927706825691933     IErMin= 2 ErrMin= 1.58D-07
 ErrMax= 1.58D-07  0.00D+00 EMaxC= 1.00D-01 BMatC= 1.69D-13 BMatP= 8.36D-11
 IDIUse=1 WtCom= 1.00D+00 WtEn= 0.00D+00
 Coeff-Com: -0.422D-02 0.100D+01
 Coeff:     -0.422D-02 0.100D+01
 Gap=     0.059 Goal=   None    Shift=    0.000
 RMSDP=6.16D-08 MaxDP=2.37D-07 DE=-1.03D-10 OVMax= 3.20D-07

 Cycle   6  Pass 1  IDiag  1:
 E=-0.927706825692188     Delta-E=       -0.000000000000 Rises=F Damp=F
 DIIS: error= 9.50D-09 at cycle   3 NSaved=   3.
 NSaved= 3 IEnMin= 3 EnMin=-0.927706825692188     IErMin= 3 ErrMin= 9.50D-09
 ErrMax= 9.50D-09  0.00D+00 EMaxC= 1.00D-01 BMatC= 4.70D-16 BMatP= 1.69D-13
 IDIUse=1 WtCom= 1.00D+00 WtEn= 0.00D+00
 Coeff-Com: -0.218D-02 0.254D-01 0.977D+00
 Coeff:     -0.218D-02 0.254D-01 0.977D+00
 Gap=     0.059 Goal=   None    Shift=    0.000
 RMSDP=3.54D-09 MaxDP=1.37D-08 DE=-2.54D-13 OVMax= 1.89D-08

 SCF Done:  E(RB3LYP) = -0.927706825692     A.U. after    6 cycles
            NFock=  6  Conv=0.35D-08     -V/T= 2.0750
 KE= 8.630099552726D-01 PE=-2.232417901141D+00 EE= 2.659373722587D-01
 Leave Link  502 at Mon Mar  4 11:44:31 2019, MaxMem=   104857600 cpu:               0.2 elap:               0.3
 (Enter /opt/g16/l601.exe)
 Copying SCF densities to generalized density rwf, IOpCl= 0 IROHF=0.

 **********************************************************************

            Population analysis using the SCF Density.

 **********************************************************************

 Orbital symmetries:
       Occupied  (SGG)
       Virtual   (SGU) (SGG) (SGU) (PIU) (PIU) (PIG) (PIG) (SGG)
                 (SGU)
 The electronic state is 1-SGG.
 Alpha  occ. eigenvalues --   -0.26277
 Alpha virt. eigenvalues --   -0.20396   0.70230   0.80479   1.98921   1.98921
 Alpha virt. eigenvalues --    1.98950   1.98950   1.98994   1.99084
          Condensed to atoms (all electrons):
               1          2
     1  H    0.959456   0.040544
     2  H    0.040544   0.959456
 Mulliken charges:
               1
     1  H   -0.000000
     2  H   -0.000000
 Sum of Mulliken charges =  -0.00000
 Mulliken charges with hydrogens summed into heavy atoms:
               1
 Electronic spatial extent (au):  <R**2>=             21.7972
 Charge=             -0.0000 electrons
 Dipole moment (field-independent basis, Debye):
    X=             -0.0000    Y=              0.0000    Z=             -0.0000  Tot=              0.0000
 Quadrupole moment (field-independent basis, Debye-Ang):
   XX=             -2.8076   YY=             -2.8076   ZZ=             -1.9333
   XY=             -0.0000   XZ=             -0.0000   YZ=              0.0000
 Traceless Quadrupole moment (field-independent basis, Debye-Ang):
   XX=             -0.2914   YY=             -0.2914   ZZ=              0.5829
   XY=             -0.0000   XZ=             -0.0000   YZ=              0.0000
 Octapole moment (field-independent basis, Debye-Ang**2):
  XXX=             -0.0000  YYY=              0.0000  ZZZ=             -0.0000  XYY=             -0.0000
  XXY=              0.0000  XXZ=              0.0000  XZZ=             -0.0000  YZZ=              0.0000
  YYZ=              0.0000  XYZ=              0.0000
 Hexadecapole moment (field-independent basis, Debye-Ang**3):
 XXXX=             -3.1268 YYYY=             -3.1268 ZZZZ=            -37.0849 XXXY=              0.0000
 XXXZ=              0.0000 YYYX=              0.0000 YYYZ=             -0.0000 ZZZX=              0.0000
 ZZZY=             -0.0000 XXYY=             -1.0423 XXZZ=             -7.0537 YYZZ=             -7.0537
 XXYZ=             -0.0000 YYXZ=              0.0000 ZZXY=              0.0000
 N-N= 1.757637479176D-01 E-N=-2.232417903120D+00  KE= 8.630099552726D-01
 Symmetry AG   KE= 8.630099552726D-01
 Symmetry B1G  KE= 0.000000000000D+00
 Symmetry B2G  KE= 1.294682170993D-37
 Symmetry B3G  KE= 1.429338778643D-37
 Symmetry AU   KE= 0.000000000000D+00
 Symmetry B1U  KE= 3.019021294114D-37
 Symmetry B2U  KE= 4.725584345159D-38
 Symmetry B3U  KE= 4.831541102028D-38
 No NMR shielding tensors so no spin-rotation constants.
 Leave Link  601 at Mon Mar  4 11:44:31 2019, MaxMem=   104857600 cpu:               0.1 elap:               0.1
 (Enter /opt/g16/l607.exe)
 ******************************Gaussian NBO Version 3.1******************************
             N A T U R A L   A T O M I C   O R B I T A L   A N D
          N A T U R A L   B O N D   O R B I T A L   A N A L Y S I S
 ******************************Gaussian NBO Version 3.1******************************
       /RESON  / : Allow strongly delocalized NBO set

 Analyzing the SCF density

 Job title: H2                                                              

 Storage needed:       370 in NPA ( 104857572 available)


 NATURAL POPULATIONS:  Natural atomic orbital occupancies 
                                                          
   NAO  Atom  No  lang   Type(AO)    Occupancy      Energy
 ----------------------------------------------------------
     1    H    1  S      Val( 1S)     1.00000      -0.23330
     2    H    1  S      Ryd( 2S)     0.00000       0.75395
     3    H    1  px     Ryd( 2p)     0.00000       1.98935
     4    H    1  py     Ryd( 2p)     0.00000       1.98935
     5    H    1  pz     Ryd( 2p)     0.00000       1.98992

     6    H    2  S      Val( 1S)     1.00000      -0.23330
     7    H    2  S      Ryd( 2S)     0.00000       0.75395
     8    H    2  px     Ryd( 2p)     0.00000       1.98935
     9    H    2  py     Ryd( 2p)     0.00000       1.98935
    10    H    2  pz     Ryd( 2p)     0.00000       1.98992


 Summary of Natural Population Analysis:                  
                                                          
                                       Natural Population 
                Natural  -----------------------------------------------
    Atom  No    Charge         Core      Valence    Rydberg      Total
 -----------------------------------------------------------------------
      H    1   -0.00000      0.00000     1.00000    0.00000     1.00000
      H    2   -0.00000      0.00000     1.00000    0.00000     1.00000
 =======================================================================
   * Total *   -0.00000      0.00000     1.99999    0.00001     2.00000

                                 Natural Population      
 --------------------------------------------------------
   Valence                    1.99999 ( 99.9996% of   2)
   Natural Minimal Basis      1.99999 ( 99.9996% of   2)
   Natural Rydberg Basis      0.00001 (  0.0004% of   2)
 --------------------------------------------------------

    Atom  No          Natural Electron Configuration
 ----------------------------------------------------------------------------
      H    1            1S( 1.00)
      H    2            1S( 1.00)


 NBO analysis skipped by request.
 Leave Link  607 at Mon Mar  4 11:44:32 2019, MaxMem=   104857600 cpu:               0.6 elap:               0.7
 (Enter /opt/g16/l701.exe)
 ... and contract with generalized density number  0.
 Compute integral first derivatives.
 Leave Link  701 at Mon Mar  4 11:44:32 2019, MaxMem=   104857600 cpu:               0.1 elap:               0.1
 (Enter /opt/g16/l702.exe)
 L702 exits ... SP integral derivatives will be done elsewhere.
 Leave Link  702 at Mon Mar  4 11:44:33 2019, MaxMem=   104857600 cpu:               0.0 elap:               0.0
 (Enter /opt/g16/l703.exe)
 Integral derivatives from FoFJK, PRISM(SPDF).
 Compute integral first derivatives, UseDBF=F ICtDFT=           0.
 Calling FoFJK, ICntrl=      2127 FMM=F ISym2X=1 I1Cent= 0 IOpClX= 0 NMat=1 NMatS=1 NMatT=0.
 FoFJK:  IHMeth= 1 ICntrl=    2127 DoSepK=F KAlg= 0 I1Cent=           0 FoldK=F
 IRaf=         0 NMat=       1 IRICut=       1 DoRegI=T DoRafI=F ISym2E= 1 IDoP0=0 IntGTp=1.
 FoFCou: FMM=F IPFlag=           0 FMFlag=      100000 FMFlg1=         800
         NFxFlg=           0 DoJE=F BraDBF=F KetDBF=F FulRan=T
         wScrn=  0.000000 ICntrl=      2127 IOpCl=  0 I1Cent=           0 NGrid=           0
         NMat0=    1 NMatS0=      1 NMatT0=    0 NMatD0=    1 NMtDS0=    0 NMtDT0=    0
 Petite list used in FoFCou.
 Leave Link  703 at Mon Mar  4 11:44:33 2019, MaxMem=   104857600 cpu:               0.2 elap:               0.1
 (Enter /opt/g16/l716.exe)
 Dipole        =-4.43734259D-31 0.00000000D+00 0.00000000D+00
 ***** Axes restored to original set *****
 -------------------------------------------------------------------
 Center     Atomic                   Forces (Hartrees/Bohr)
 Number     Number              X              Y              Z
 -------------------------------------------------------------------
      1        1           0.020177797    0.000102809    0.000016822
      2        1          -0.020177797   -0.000102809   -0.000016822
 -------------------------------------------------------------------
 Cartesian Forces:  Max     0.020177797 RMS     0.011649812
 Leave Link  716 at Mon Mar  4 11:44:33 2019, MaxMem=   104857600 cpu:               0.0 elap:               0.0
 (Enter /opt/g16/l103.exe)

 GradGradGradGradGradGradGradGradGradGradGradGradGradGradGradGradGradGrad
 Berny optimization.
 FormGI is forming the generalized inverse of G from B-inverse, IUseBI=4.
 Internal  Forces:  Max     0.020178066 RMS     0.020178066
 Search for a local minimum.
 Step number   1 out of a maximum of   20 on scan point     1 out of    29
 All quantities printed in internal units (Hartrees-Bohrs-Radians)
 RMS Force = .00000D+00 SwitMx=.10000D-02 MixMth= 2
 Mixed Optimization -- En-DIIS/RFO-DIIS
 Second derivative matrix not updated -- first step.
 The second derivative matrix:
                          R1
           R1           0.00830
 ITU=  0
     Eigenvalues --- 1000.00000
 RFO step:  Lambda= 0.00000000D+00 EMin= 1.00000000D+03
 Linear search not attempted -- first point.
 Iteration  1 RMS(Cart)=  0.00000000 RMS(Int)=  0.00000000
 Iteration  1 RMS(Cart)=  0.00000000 RMS(Int)=  0.00000000
 ITry= 1 IFail=0 DXMaxC= 0.00D+00 DCOld= 1.00D+10 DXMaxT= 3.00D-01 DXLimC= 3.00D+00 Rises=F
 ClnCor:  largest displacement from symmetrization is 4.34D-19 for atom     1.
 Variable       Old X    -DE/DX   Delta X   Delta X   Delta X     New X
                                 (Linear)    (Quad)   (Total)
    R1        5.68946  -0.02018   0.00000   0.00000   0.00000   5.68946
         Item               Value     Threshold  Converged?
 Maximum Force            0.000000     0.000450     YES
 RMS     Force            0.000000     0.000300     YES
 Maximum Displacement     0.000000     0.001800     YES
 RMS     Displacement     0.000000     0.001200     YES
 Predicted change in Energy=-0.000000D+00
 Optimization completed.
    -- Stationary point found.
                           ----------------------------
                           !   Optimized Parameters   !
                           ! (Angstroms and Degrees)  !
 --------------------------                            --------------------------
 ! Name  Definition              Value          Derivative Info.                !
 --------------------------------------------------------------------------------
 ! R1    R(1,2)                  3.0107         -DE/DX =   -0.0202              !
 --------------------------------------------------------------------------------
 Lowest energy point so far.  Saving SCF results.
 Iteration  1 RMS(Cart)=  0.13362382 RMS(Int)=  0.00000000
 Iteration  2 RMS(Cart)=  0.00000000 RMS(Int)=  0.00000000
 Iteration  1 RMS(Cart)=  0.00000000 RMS(Int)=  0.00000000
 GradGradGradGradGradGradGradGradGradGradGradGradGradGradGradGradGradGrad

 Leave Link  103 at Mon Mar  4 11:44:33 2019, MaxMem=   104857600 cpu:               0.0 elap:               0.1
 (Enter /opt/g16/l202.exe)
                          Input orientation:                          
 ---------------------------------------------------------------------
 Center     Atomic      Atomic             Coordinates (Angstroms)
 Number     Number       Type             X           Y           Z
 ---------------------------------------------------------------------
      1          1           0       -2.363971    2.948255    0.000042
      2          1           0        0.546721    2.963085    0.002468
 ---------------------------------------------------------------------
 Stoichiometry    H2
 Framework group  D*H[C*(H.H)]
 Deg. of freedom     1
 Full point group                 D*H     NOp   8
 RotChk:  IX=0 Diff= 5.52D-16
 Largest Abelian subgroup         D2H     NOp   8
 Largest concise Abelian subgroup C2      NOp   2
                         Standard orientation:                         
 ---------------------------------------------------------------------
 Center     Atomic      Atomic             Coordinates (Angstroms)
 Number     Number       Type             X           Y           Z
 ---------------------------------------------------------------------
      1          1           0        0.000000    0.000000    1.455365
      2          1           0        0.000000   -0.000000   -1.455365
 ---------------------------------------------------------------------
 Rotational constants (GHZ):           0.0000000         118.3745035         118.3745035
 Leave Link  202 at Mon Mar  4 11:44:33 2019, MaxMem=   104857600 cpu:               0.0 elap:               0.0
 (Enter /opt/g16/l301.exe)
 Standard basis: 6-31+G(d,p) (6D, 7F)
 Ernie: Thresh=  0.10000D-02 Tol=  0.10000D-05 Strict=F.
 There are     3 symmetry adapted cartesian basis functions of AG  symmetry.
 There are     0 symmetry adapted cartesian basis functions of B1G symmetry.
 There are     1 symmetry adapted cartesian basis functions of B2G symmetry.
 There are     1 symmetry adapted cartesian basis functions of B3G symmetry.
 There are     0 symmetry adapted cartesian basis functions of AU  symmetry.
 There are     3 symmetry adapted cartesian basis functions of B1U symmetry.
 There are     1 symmetry adapted cartesian basis functions of B2U symmetry.
 There are     1 symmetry adapted cartesian basis functions of B3U symmetry.
 There are     3 symmetry adapted basis functions of AG  symmetry.
 There are     0 symmetry adapted basis functions of B1G symmetry.
 There are     1 symmetry adapted basis functions of B2G symmetry.
 There are     1 symmetry adapted basis functions of B3G symmetry.
 There are     0 symmetry adapted basis functions of AU  symmetry.
 There are     3 symmetry adapted basis functions of B1U symmetry.
 There are     1 symmetry adapted basis functions of B2U symmetry.
 There are     1 symmetry adapted basis functions of B3U symmetry.
    10 basis functions,    14 primitive gaussians,    10 cartesian basis functions
     1 alpha electrons        1 beta electrons
       nuclear repulsion energy         0.1818022242 Hartrees.
 IExCor=  402 DFT=T Ex+Corr=B3LYP ExCW=0 ScaHFX=  0.200000
 ScaDFX=  0.800000  0.720000  1.000000  0.810000 ScalE2=  1.000000  1.000000
 IRadAn=      5 IRanWt=     -1 IRanGd=            0 ICorTp=0 IEmpDi=  4
 NAtoms=    2 NActive=    2 NUniq=    1 SFac= 4.00D+00 NAtFMM=   60 NAOKFM=F Big=F
 Integral buffers will be    131072 words long.
 Raffenetti 2 integral format.
 Two-electron integral symmetry is turned on.
 Leave Link  301 at Mon Mar  4 11:44:33 2019, MaxMem=   104857600 cpu:               0.1 elap:               0.1
 (Enter /opt/g16/l302.exe)
 NPDir=0 NMtPBC=     1 NCelOv=     1 NCel=       1 NClECP=     1 NCelD=      1
         NCelK=      1 NCelE2=     1 NClLst=     1 CellRange=     0.0.
 One-electron integrals computed using PRISM.
 One-electron integral symmetry used in STVInt
 NBasis=    10 RedAO= T EigKep=  3.09D-01  NBF=     3     0     1     1     0     3     1     1
 NBsUse=    10 1.00D-06 EigRej= -1.00D+00 NBFU=     3     0     1     1     0     3     1     1
 Precomputing XC quadrature grid using
 IXCGrd= 4 IRadAn=           5 IRanWt=          -1 IRanGd=           0 AccXCQ= 0.00D+00.
 Generated NRdTot=       0 NPtTot=           0 NUsed=           0 NTot=          32
 NSgBfM=    10    10    10    10    10 MxSgAt=     2 MxSgA2=     2.
 Leave Link  302 at Mon Mar  4 11:44:34 2019, MaxMem=   104857600 cpu:               0.1 elap:               0.1
 (Enter /opt/g16/l303.exe)
 DipDrv:  MaxL=1.
 Leave Link  303 at Mon Mar  4 11:44:34 2019, MaxMem=   104857600 cpu:               0.0 elap:               0.0
 (Enter /opt/g16/l401.exe)
 Initial guess from the checkpoint file:  "H2.chk"
 B after Tr=    -0.000000    0.000000    0.000000
         Rot=    1.000000   -0.000000    0.000000    0.000000 Ang=   0.00 deg.
 Guess basis will be translated and rotated to current coordinates.
 JPrj=2 DoOrth=T DoCkMO=T.
 Initial guess orbital symmetries:
       Occupied  (SGG)
       Virtual   (SGU) (SGG) (SGU) (PIU) (PIU) (PIG) (PIG) (SGG)
                 (SGU)
 The electronic state of the initial guess is 1-SGG.
 Generating alternative initial guess.
 ExpMin= 1.61D-01 ExpMax= 1.87D+01 ExpMxC= 1.87D+01 IAcc=3 IRadAn=         5 AccDes= 0.00D+00
 Harris functional with IExCor=  402 and IRadAn=       5 diagonalized for initial guess.
 HarFok:  IExCor=  402 AccDes= 0.00D+00 IRadAn=         5 IDoV= 1 UseB2=F ITyADJ=14
 ICtDFT=  3500011 ScaDFX=  1.000000  1.000000  1.000000  1.000000
 FoFCou: FMM=F IPFlag=           0 FMFlag=      100000 FMFlg1=           0
         NFxFlg=           0 DoJE=T BraDBF=F KetDBF=T FulRan=T
         wScrn=  0.000000 ICntrl=       500 IOpCl=  0 I1Cent=   200000004 NGrid=           0
         NMat0=    1 NMatS0=      1 NMatT0=    0 NMatD0=    1 NMtDS0=    0 NMtDT0=    0
 Petite list used in FoFCou.
 Harris En=-0.943052260084988    
 Leave Link  401 at Mon Mar  4 11:44:34 2019, MaxMem=   104857600 cpu:               0.2 elap:               0.2
 (Enter /opt/g16/l502.exe)
 Keep R1 ints in memory in symmetry-blocked form, NReq=864985.
 FoFCou: FMM=F IPFlag=           0 FMFlag=           0 FMFlg1=           0
         NFxFlg=           0 DoJE=F BraDBF=F KetDBF=F FulRan=T
         wScrn=  0.000000 ICntrl=       600 IOpCl=  0 I1Cent=           0 NGrid=           0
         NMat0=    1 NMatS0=     55 NMatT0=    0 NMatD0=    1 NMtDS0=    0 NMtDT0=    0
 Petite list used in FoFCou.
 Closed shell SCF:
 Using DIIS extrapolation, IDIIS=  1040.
 NGot=   104857600 LenX=   104855094 LenY=   104854212
 Requested convergence on RMS density matrix=1.00D-08 within 128 cycles.
 Requested convergence on MAX density matrix=1.00D-06.
 Requested convergence on             energy=1.00D-06.
 No special actions if energy rises.
 Integral accuracy reduced to 1.0D-05 until final iterations.

 Cycle   1  Pass 0  IDiag  1:
 E=-0.931732420274459    
 DIIS: error= 3.43D-04 at cycle   1 NSaved=   1.
 NSaved= 1 IEnMin= 1 EnMin=-0.931732420274459     IErMin= 1 ErrMin= 3.43D-04
 ErrMax= 3.43D-04  0.00D+00 EMaxC= 1.00D-01 BMatC= 8.56D-07 BMatP= 8.56D-07
 IDIUse=3 WtCom= 9.97D-01 WtEn= 3.43D-03
 Coeff-Com:  0.100D+01
 Coeff-En:   0.100D+01
 Coeff:      0.100D+01
 Gap=     0.064 Goal=   None    Shift=    0.000
 RMSDP=1.32D-04 MaxDP=5.04D-04              OVMax= 6.88D-04

 Cycle   2  Pass 0  IDiag  1:
 E=-0.931733663627250     Delta-E=       -0.000001243353 Rises=F Damp=F
 DIIS: error= 1.82D-05 at cycle   2 NSaved=   2.
 NSaved= 2 IEnMin= 2 EnMin=-0.931733663627250     IErMin= 2 ErrMin= 1.82D-05
 ErrMax= 1.82D-05  0.00D+00 EMaxC= 1.00D-01 BMatC= 2.08D-09 BMatP= 8.56D-07
 IDIUse=1 WtCom= 1.00D+00 WtEn= 0.00D+00
 Coeff-Com:  0.116D-01 0.988D+00
 Coeff:      0.116D-01 0.988D+00
 Gap=     0.064 Goal=   None    Shift=    0.000
 RMSDP=7.15D-06 MaxDP=2.74D-05 DE=-1.24D-06 OVMax= 3.84D-05

 Initial convergence to 1.0D-05 achieved.  Increase integral accuracy.
 Cycle   3  Pass 1  IDiag  1:
 E=-0.931734810623405     Delta-E=       -0.000001146996 Rises=F Damp=F
 DIIS: error= 4.06D-06 at cycle   1 NSaved=   1.
 NSaved= 1 IEnMin= 1 EnMin=-0.931734810623405     IErMin= 1 ErrMin= 4.06D-06
 ErrMax= 4.06D-06  0.00D+00 EMaxC= 1.00D-01 BMatC= 6.90D-11 BMatP= 6.90D-11
 IDIUse=1 WtCom= 1.00D+00 WtEn= 0.00D+00
 Coeff-Com:  0.100D+01
 Coeff:      0.100D+01
 Gap=     0.064 Goal=   None    Shift=    0.000
 RMSDP=7.15D-06 MaxDP=2.74D-05 DE=-1.15D-06 OVMax= 8.47D-06

 Cycle   4  Pass 1  IDiag  1:
 E=-0.931734810755902     Delta-E=       -0.000000000132 Rises=F Damp=F
 DIIS: error= 2.37D-07 at cycle   2 NSaved=   2.
 NSaved= 2 IEnMin= 2 EnMin=-0.931734810755902     IErMin= 2 ErrMin= 2.37D-07
 ErrMax= 2.37D-07  0.00D+00 EMaxC= 1.00D-01 BMatC= 2.26D-13 BMatP= 6.90D-11
 IDIUse=1 WtCom= 1.00D+00 WtEn= 0.00D+00
 Coeff-Com:  0.528D-01 0.947D+00
 Coeff:      0.528D-01 0.947D+00
 Gap=     0.064 Goal=   None    Shift=    0.000
 RMSDP=8.59D-08 MaxDP=3.36D-07 DE=-1.32D-10 OVMax= 4.65D-07

 Cycle   5  Pass 1  IDiag  1:
 E=-0.931734810756343     Delta-E=       -0.000000000000 Rises=F Damp=F
 DIIS: error= 2.01D-09 at cycle   3 NSaved=   3.
 NSaved= 3 IEnMin= 3 EnMin=-0.931734810756343     IErMin= 3 ErrMin= 2.01D-09
 ErrMax= 2.01D-09  0.00D+00 EMaxC= 1.00D-01 BMatC= 1.69D-17 BMatP= 2.26D-13
 IDIUse=1 WtCom= 1.00D+00 WtEn= 0.00D+00
 Coeff-Com: -0.213D-02-0.349D-01 0.104D+01
 Coeff:     -0.213D-02-0.349D-01 0.104D+01
 Gap=     0.064 Goal=   None    Shift=    0.000
 RMSDP=2.53D-10 MaxDP=6.46D-10 DE=-4.41D-13 OVMax= 8.42D-10

 SCF Done:  E(RB3LYP) = -0.931734810756     A.U. after    5 cycles
            NFock=  5  Conv=0.25D-09     -V/T= 2.0882
 KE= 8.562407799827D-01 PE=-2.241680489681D+00 EE= 2.719026747553D-01
 Leave Link  502 at Mon Mar  4 11:44:35 2019, MaxMem=   104857600 cpu:               0.2 elap:               0.2
 (Enter /opt/g16/l701.exe)
 ... and contract with generalized density number  0.
 Compute integral first derivatives.
 Leave Link  701 at Mon Mar  4 11:44:35 2019, MaxMem=   104857600 cpu:               0.1 elap:               0.1
 (Enter /opt/g16/l702.exe)
 L702 exits ... SP integral derivatives will be done elsewhere.
 Leave Link  702 at Mon Mar  4 11:44:35 2019, MaxMem=   104857600 cpu:               0.0 elap:               0.0
 (Enter /opt/g16/l703.exe)
 Integral derivatives from FoFJK, PRISM(SPDF).
 Compute integral first derivatives, UseDBF=F ICtDFT=           0.
 Calling FoFJK, ICntrl=      2127 FMM=F ISym2X=1 I1Cent= 0 IOpClX= 0 NMat=1 NMatS=1 NMatT=0.
 FoFJK:  IHMeth= 1 ICntrl=    2127 DoSepK=F KAlg= 0 I1Cent=           0 FoldK=F
 IRaf=         0 NMat=       1 IRICut=       1 DoRegI=T DoRafI=F ISym2E= 1 IDoP0=0 IntGTp=1.
 FoFCou: FMM=F IPFlag=           0 FMFlag=      100000 FMFlg1=         800
         NFxFlg=           0 DoJE=F BraDBF=F KetDBF=F FulRan=T
         wScrn=  0.000000 ICntrl=      2127 IOpCl=  0 I1Cent=           0 NGrid=           0
         NMat0=    1 NMatS0=      1 NMatT0=    0 NMatD0=    1 NMtDS0=    0 NMtDT0=    0
 Petite list used in FoFCou.
 Leave Link  703 at Mon Mar  4 11:44:35 2019, MaxMem=   104857600 cpu:               0.1 elap:               0.2
 (Enter /opt/g16/l716.exe)
 Dipole        = 4.93038066D-32 0.00000000D+00 0.00000000D+00
 ***** Axes restored to original set *****
 -------------------------------------------------------------------
 Center     Atomic                   Forces (Hartrees/Bohr)
 Number     Number              X              Y              Z
 -------------------------------------------------------------------
      1        1           0.022488154    0.000114581    0.000018748
      2        1          -0.022488154   -0.000114581   -0.000018748
 -------------------------------------------------------------------
 Cartesian Forces:  Max     0.022488154 RMS     0.012983715
 Leave Link  716 at Mon Mar  4 11:44:35 2019, MaxMem=   104857600 cpu:               0.0 elap:               0.0
 (Enter /opt/g16/l103.exe)

 GradGradGradGradGradGradGradGradGradGradGradGradGradGradGradGradGradGrad
 Berny optimization.
 Red2BG is reusing G-inverse.
 Internal  Forces:  Max     0.022488454 RMS     0.022488454
 Search for a local minimum.
 Step number   1 out of a maximum of   20 on scan point     2 out of    29
 All quantities printed in internal units (Hartrees-Bohrs-Radians)
 RMS Force = .00000D+00 SwitMx=.10000D-02 MixMth= 1
 Mixed Optimization -- RFO/linear search
 Second derivative matrix not updated -- first step.
 The second derivative matrix:
                          R1
           R1           0.00830
 ITU=  0
     Eigenvalues --- 1000.00000
 RFO step:  Lambda= 0.00000000D+00 EMin= 1.00000000D+03
 Linear search not attempted -- first point.
 Iteration  1 RMS(Cart)=  0.00000000 RMS(Int)=  0.00000000
 Iteration  1 RMS(Cart)=  0.00000000 RMS(Int)=  0.00000000
 ITry= 1 IFail=0 DXMaxC= 1.33D-15 DCOld= 1.00D+10 DXMaxT= 3.00D-01 DXLimC= 3.00D+00 Rises=F
 ClnCor:  largest displacement from symmetrization is 8.88D-16 for atom     1.
 Variable       Old X    -DE/DX   Delta X   Delta X   Delta X     New X
                                 (Linear)    (Quad)   (Total)
    R1        5.50048  -0.02249   0.00000   0.00000   0.00000   5.50048
         Item               Value     Threshold  Converged?
 Maximum Force            0.000000     0.000450     YES
 RMS     Force            0.000000     0.000300     YES
 Maximum Displacement     0.000000     0.001800     YES
 RMS     Displacement     0.000000     0.001200     YES
 Predicted change in Energy=-0.000000D+00
 Optimization completed.
    -- Stationary point found.
                           ----------------------------
                           !   Optimized Parameters   !
                           ! (Angstroms and Degrees)  !
 --------------------------                            --------------------------
 ! Name  Definition              Value          Derivative Info.                !
 --------------------------------------------------------------------------------
 ! R1    R(1,2)                  2.9107         -DE/DX =   -0.0225              !
 --------------------------------------------------------------------------------
 Lowest energy point so far.  Saving SCF results.
 Iteration  1 RMS(Cart)=  0.13362382 RMS(Int)=  0.00000000
 Iteration  2 RMS(Cart)=  0.00000000 RMS(Int)=  0.00000000
 Iteration  1 RMS(Cart)=  0.00000000 RMS(Int)=  0.00000000
 GradGradGradGradGradGradGradGradGradGradGradGradGradGradGradGradGradGrad

 Leave Link  103 at Mon Mar  4 11:44:35 2019, MaxMem=   104857600 cpu:               0.0 elap:               0.0
 (Enter /opt/g16/l202.exe)
                          Input orientation:                          
 ---------------------------------------------------------------------
 Center     Atomic      Atomic             Coordinates (Angstroms)
 Number     Number       Type             X           Y           Z
 ---------------------------------------------------------------------
      1          1           0       -2.313971    2.948510    0.000083
      2          1           0        0.496721    2.962830    0.002427
 ---------------------------------------------------------------------
 Stoichiometry    H2
 Framework group  D*H[C*(H.H)]
 Deg. of freedom     1
 Full point group                 D*H     NOp   8
 RotChk:  IX=0 Diff= 3.54D-16
 Largest Abelian subgroup         D2H     NOp   8
 Largest concise Abelian subgroup C2      NOp   2
                         Standard orientation:                         
 ---------------------------------------------------------------------
 Center     Atomic      Atomic             Coordinates (Angstroms)
 Number     Number       Type             X           Y           Z
 ---------------------------------------------------------------------
      1          1           0        0.000000   -0.000000    1.405365
      2          1           0        0.000000   -0.000000   -1.405365
 ---------------------------------------------------------------------
 Rotational constants (GHZ):           0.0000000         126.9473838         126.9473838
 Leave Link  202 at Mon Mar  4 11:44:36 2019, MaxMem=   104857600 cpu:               0.0 elap:               0.0
 (Enter /opt/g16/l301.exe)
 Standard basis: 6-31+G(d,p) (6D, 7F)
 Ernie: Thresh=  0.10000D-02 Tol=  0.10000D-05 Strict=F.
 There are     3 symmetry adapted cartesian basis functions of AG  symmetry.
 There are     0 symmetry adapted cartesian basis functions of B1G symmetry.
 There are     1 symmetry adapted cartesian basis functions of B2G symmetry.
 There are     1 symmetry adapted cartesian basis functions of B3G symmetry.
 There are     0 symmetry adapted cartesian basis functions of AU  symmetry.
 There are     3 symmetry adapted cartesian basis functions of B1U symmetry.
 There are     1 symmetry adapted cartesian basis functions of B2U symmetry.
 There are     1 symmetry adapted cartesian basis functions of B3U symmetry.
 There are     3 symmetry adapted basis functions of AG  symmetry.
 There are     0 symmetry adapted basis functions of B1G symmetry.
 There are     1 symmetry adapted basis functions of B2G symmetry.
 There are     1 symmetry adapted basis functions of B3G symmetry.
 There are     0 symmetry adapted basis functions of AU  symmetry.
 There are     3 symmetry adapted basis functions of B1U symmetry.
 There are     1 symmetry adapted basis functions of B2U symmetry.
 There are     1 symmetry adapted basis functions of B3U symmetry.
    10 basis functions,    14 primitive gaussians,    10 cartesian basis functions
     1 alpha electrons        1 beta electrons
       nuclear repulsion energy         0.1882703736 Hartrees.
 IExCor=  402 DFT=T Ex+Corr=B3LYP ExCW=0 ScaHFX=  0.200000
 ScaDFX=  0.800000  0.720000  1.000000  0.810000 ScalE2=  1.000000  1.000000
 IRadAn=      5 IRanWt=     -1 IRanGd=            0 ICorTp=0 IEmpDi=  4
 NAtoms=    2 NActive=    2 NUniq=    1 SFac= 4.00D+00 NAtFMM=   60 NAOKFM=F Big=F
 Integral buffers will be    131072 words long.
 Raffenetti 2 integral format.
 Two-electron integral symmetry is turned on.
 Leave Link  301 at Mon Mar  4 11:44:36 2019, MaxMem=   104857600 cpu:               0.1 elap:               0.1
 (Enter /opt/g16/l302.exe)
 NPDir=0 NMtPBC=     1 NCelOv=     1 NCel=       1 NClECP=     1 NCelD=      1
         NCelK=      1 NCelE2=     1 NClLst=     1 CellRange=     0.0.
 One-electron integrals computed using PRISM.
 One-electron integral symmetry used in STVInt
 NBasis=    10 RedAO= T EigKep=  3.04D-01  NBF=     3     0     1     1     0     3     1     1
 NBsUse=    10 1.00D-06 EigRej= -1.00D+00 NBFU=     3     0     1     1     0     3     1     1
 Precomputing XC quadrature grid using
 IXCGrd= 4 IRadAn=           5 IRanWt=          -1 IRanGd=           0 AccXCQ= 0.00D+00.
 Generated NRdTot=       0 NPtTot=           0 NUsed=           0 NTot=          32
 NSgBfM=    10    10    10    10    10 MxSgAt=     2 MxSgA2=     2.
 Leave Link  302 at Mon Mar  4 11:44:36 2019, MaxMem=   104857600 cpu:               0.1 elap:               0.1
 (Enter /opt/g16/l303.exe)
 DipDrv:  MaxL=1.
 Leave Link  303 at Mon Mar  4 11:44:36 2019, MaxMem=   104857600 cpu:               0.0 elap:               0.1
 (Enter /opt/g16/l401.exe)
 Initial guess from the checkpoint file:  "H2.chk"
 B after Tr=    -0.000000   -0.000000   -0.000000
         Rot=    1.000000   -0.000000   -0.000000    0.000000 Ang=   0.00 deg.
 Guess basis will be translated and rotated to current coordinates.
 JPrj=2 DoOrth=T DoCkMO=T.
 Initial guess orbital symmetries:
       Occupied  (SGG)
       Virtual   (SGU) (SGG) (SGU) (PIU) (PIU) (PIG) (PIG) (SGG)
                 (SGU)
 The electronic state of the initial guess is 1-SGG.
 Generating alternative initial guess.
 ExpMin= 1.61D-01 ExpMax= 1.87D+01 ExpMxC= 1.87D+01 IAcc=3 IRadAn=         5 AccDes= 0.00D+00
 Harris functional with IExCor=  402 and IRadAn=       5 diagonalized for initial guess.
 HarFok:  IExCor=  402 AccDes= 0.00D+00 IRadAn=         5 IDoV= 1 UseB2=F ITyADJ=14
 ICtDFT=  3500011 ScaDFX=  1.000000  1.000000  1.000000  1.000000
 FoFCou: FMM=F IPFlag=           0 FMFlag=      100000 FMFlg1=           0
         NFxFlg=           0 DoJE=T BraDBF=F KetDBF=T FulRan=T
         wScrn=  0.000000 ICntrl=       500 IOpCl=  0 I1Cent=   200000004 NGrid=           0
         NMat0=    1 NMatS0=      1 NMatT0=    0 NMatD0=    1 NMtDS0=    0 NMtDT0=    0
 Petite list used in FoFCou.
 Harris En=-0.946727610175495    
 Leave Link  401 at Mon Mar  4 11:44:37 2019, MaxMem=   104857600 cpu:               0.2 elap:               0.2
 (Enter /opt/g16/l502.exe)
 Keep R1 ints in memory in symmetry-blocked form, NReq=864985.
 FoFCou: FMM=F IPFlag=           0 FMFlag=           0 FMFlg1=           0
         NFxFlg=           0 DoJE=F BraDBF=F KetDBF=F FulRan=T
         wScrn=  0.000000 ICntrl=       600 IOpCl=  0 I1Cent=           0 NGrid=           0
         NMat0=    1 NMatS0=     55 NMatT0=    0 NMatD0=    1 NMtDS0=    0 NMtDT0=    0
 Petite list used in FoFCou.
 Closed shell SCF:
 Using DIIS extrapolation, IDIIS=  1040.
 NGot=   104857600 LenX=   104855094 LenY=   104854212
 Requested convergence on RMS density matrix=1.00D-08 within 128 cycles.
 Requested convergence on MAX density matrix=1.00D-06.
 Requested convergence on             energy=1.00D-06.
 No special actions if energy rises.
 Integral accuracy reduced to 1.0D-05 until final iterations.

 Cycle   1  Pass 0  IDiag  1:
 E=-0.936217557500127    
 DIIS: error= 4.62D-04 at cycle   1 NSaved=   1.
 NSaved= 1 IEnMin= 1 EnMin=-0.936217557500127     IErMin= 1 ErrMin= 4.62D-04
 ErrMax= 4.62D-04  0.00D+00 EMaxC= 1.00D-01 BMatC= 1.24D-06 BMatP= 1.24D-06
 IDIUse=3 WtCom= 9.95D-01 WtEn= 4.62D-03
 Coeff-Com:  0.100D+01
 Coeff-En:   0.100D+01
 Coeff:      0.100D+01
 Gap=     0.069 Goal=   None    Shift=    0.000
 RMSDP=1.73D-04 MaxDP=6.67D-04              OVMax= 9.25D-04

 Cycle   2  Pass 0  IDiag  1:
 E=-0.936219526358768     Delta-E=       -0.000001968859 Rises=F Damp=F
 DIIS: error= 2.39D-05 at cycle   2 NSaved=   2.
 NSaved= 2 IEnMin= 2 EnMin=-0.936219526358768     IErMin= 2 ErrMin= 2.39D-05
 ErrMax= 2.39D-05  0.00D+00 EMaxC= 1.00D-01 BMatC= 3.17D-09 BMatP= 1.24D-06
 IDIUse=1 WtCom= 1.00D+00 WtEn= 0.00D+00
 Coeff-Com:  0.224D-01 0.978D+00
 Coeff:      0.224D-01 0.978D+00
 Gap=     0.069 Goal=   None    Shift=    0.000
 RMSDP=9.11D-06 MaxDP=3.50D-05 DE=-1.97D-06 OVMax= 4.97D-05

 Initial convergence to 1.0D-05 achieved.  Increase integral accuracy.
 Cycle   3  Pass 1  IDiag  1:
 E=-0.936220520416008     Delta-E=       -0.000000994057 Rises=F Damp=F
 DIIS: error= 4.28D-06 at cycle   1 NSaved=   1.
 NSaved= 1 IEnMin= 1 EnMin=-0.936220520416008     IErMin= 1 ErrMin= 4.28D-06
 ErrMax= 4.28D-06  0.00D+00 EMaxC= 1.00D-01 BMatC= 8.54D-11 BMatP= 8.54D-11
 IDIUse=1 WtCom= 1.00D+00 WtEn= 0.00D+00
 Coeff-Com:  0.100D+01
 Coeff:      0.100D+01
 Gap=     0.069 Goal=   None    Shift=    0.000
 RMSDP=9.11D-06 MaxDP=3.50D-05 DE=-9.94D-07 OVMax= 8.67D-06

 Cycle   4  Pass 1  IDiag  1:
 E=-0.936220520567252     Delta-E=       -0.000000000151 Rises=F Damp=F
 DIIS: error= 2.29D-07 at cycle   2 NSaved=   2.
 NSaved= 2 IEnMin= 2 EnMin=-0.936220520567252     IErMin= 2 ErrMin= 2.29D-07
 ErrMax= 2.29D-07  0.00D+00 EMaxC= 1.00D-01 BMatC= 2.44D-13 BMatP= 8.54D-11
 IDIUse=1 WtCom= 1.00D+00 WtEn= 0.00D+00
 Coeff-Com:  0.380D-01 0.962D+00
 Coeff:      0.380D-01 0.962D+00
 Gap=     0.069 Goal=   None    Shift=    0.000
 RMSDP=8.45D-08 MaxDP=3.27D-07 DE=-1.51D-10 OVMax= 4.63D-07

 Cycle   5  Pass 1  IDiag  1:
 E=-0.936220520567701     Delta-E=       -0.000000000000 Rises=F Damp=F
 DIIS: error= 5.41D-09 at cycle   3 NSaved=   3.
 NSaved= 3 IEnMin= 3 EnMin=-0.936220520567701     IErMin= 3 ErrMin= 5.41D-09
 ErrMax= 5.41D-09  0.00D+00 EMaxC= 1.00D-01 BMatC= 1.84D-16 BMatP= 2.44D-13
 IDIUse=1 WtCom= 1.00D+00 WtEn= 0.00D+00
 Coeff-Com: -0.207D-02-0.208D-01 0.102D+01
 Coeff:     -0.207D-02-0.208D-01 0.102D+01
 Gap=     0.069 Goal=   None    Shift=    0.000
 RMSDP=1.50D-09 MaxDP=5.44D-09 DE=-4.50D-13 OVMax= 7.42D-09

 SCF Done:  E(RB3LYP) = -0.936220520568     A.U. after    5 cycles
            NFock=  5  Conv=0.15D-08     -V/T= 2.1023
 KE= 8.493182160247D-01 PE=-2.252169506932D+00 EE= 2.783603967385D-01
 Leave Link  502 at Mon Mar  4 11:44:37 2019, MaxMem=   104857600 cpu:               0.2 elap:               0.2
 (Enter /opt/g16/l701.exe)
 ... and contract with generalized density number  0.
 Compute integral first derivatives.
 Leave Link  701 at Mon Mar  4 11:44:37 2019, MaxMem=   104857600 cpu:               0.1 elap:               0.1
 (Enter /opt/g16/l702.exe)
 L702 exits ... SP integral derivatives will be done elsewhere.
 Leave Link  702 at Mon Mar  4 11:44:37 2019, MaxMem=   104857600 cpu:               0.0 elap:               0.0
 (Enter /opt/g16/l703.exe)
 Integral derivatives from FoFJK, PRISM(SPDF).
 Compute integral first derivatives, UseDBF=F ICtDFT=           0.
 Calling FoFJK, ICntrl=      2127 FMM=F ISym2X=1 I1Cent= 0 IOpClX= 0 NMat=1 NMatS=1 NMatT=0.
 FoFJK:  IHMeth= 1 ICntrl=    2127 DoSepK=F KAlg= 0 I1Cent=           0 FoldK=F
 IRaf=         0 NMat=       1 IRICut=       1 DoRegI=T DoRafI=F ISym2E= 1 IDoP0=0 IntGTp=1.
 FoFCou: FMM=F IPFlag=           0 FMFlag=      100000 FMFlg1=         800
         NFxFlg=           0 DoJE=F BraDBF=F KetDBF=F FulRan=T
         wScrn=  0.000000 ICntrl=      2127 IOpCl=  0 I1Cent=           0 NGrid=           0
         NMat0=    1 NMatS0=      1 NMatT0=    0 NMatD0=    1 NMtDS0=    0 NMtDT0=    0
 Petite list used in FoFCou.
 Leave Link  703 at Mon Mar  4 11:44:38 2019, MaxMem=   104857600 cpu:               0.1 elap:               0.2
 (Enter /opt/g16/l716.exe)
 Dipole        =-9.86076132D-32 0.00000000D+00 0.00000000D+00
 ***** Axes restored to original set *****
 -------------------------------------------------------------------
 Center     Atomic                   Forces (Hartrees/Bohr)
 Number     Number              X              Y              Z
 -------------------------------------------------------------------
      1        1           0.025025454    0.000127509    0.000020864
      2        1          -0.025025454   -0.000127509   -0.000020864
 -------------------------------------------------------------------
 Cartesian Forces:  Max     0.025025454 RMS     0.014448645
 Leave Link  716 at Mon Mar  4 11:44:38 2019, MaxMem=   104857600 cpu:               0.1 elap:               0.1
 (Enter /opt/g16/l103.exe)

 GradGradGradGradGradGradGradGradGradGradGradGradGradGradGradGradGradGrad
 Berny optimization.
 Red2BG is reusing G-inverse.
 Internal  Forces:  Max     0.025025787 RMS     0.025025787
 Search for a local minimum.
 Step number   1 out of a maximum of   20 on scan point     3 out of    29
 All quantities printed in internal units (Hartrees-Bohrs-Radians)
 RMS Force = .00000D+00 SwitMx=.10000D-02 MixMth= 1
 Mixed Optimization -- RFO/linear search
 Second derivative matrix not updated -- first step.
 The second derivative matrix:
                          R1
           R1           0.00830
 ITU=  0
     Eigenvalues --- 1000.00000
 RFO step:  Lambda= 0.00000000D+00 EMin= 1.00000000D+03
 Linear search not attempted -- first point.
 Iteration  1 RMS(Cart)=  0.00000000 RMS(Int)=  0.00000000
 Iteration  1 RMS(Cart)=  0.00000000 RMS(Int)=  0.00000000
 ITry= 1 IFail=0 DXMaxC= 4.44D-16 DCOld= 1.00D+10 DXMaxT= 3.00D-01 DXLimC= 3.00D+00 Rises=F
 ClnCor:  largest displacement from symmetrization is 4.44D-16 for atom     2.
 Variable       Old X    -DE/DX   Delta X   Delta X   Delta X     New X
                                 (Linear)    (Quad)   (Total)
    R1        5.31151  -0.02503   0.00000   0.00000   0.00000   5.31151
         Item               Value     Threshold  Converged?
 Maximum Force            0.000000     0.000450     YES
 RMS     Force            0.000000     0.000300     YES
 Maximum Displacement     0.000000     0.001800     YES
 RMS     Displacement     0.000000     0.001200     YES
 Predicted change in Energy=-0.000000D+00
 Optimization completed.
    -- Stationary point found.
                           ----------------------------
                           !   Optimized Parameters   !
                           ! (Angstroms and Degrees)  !
 --------------------------                            --------------------------
 ! Name  Definition              Value          Derivative Info.                !
 --------------------------------------------------------------------------------
 ! R1    R(1,2)                  2.8107         -DE/DX =   -0.025               !
 --------------------------------------------------------------------------------
 Lowest energy point so far.  Saving SCF results.
 Iteration  1 RMS(Cart)=  0.13362382 RMS(Int)=  0.00000000
 Iteration  2 RMS(Cart)=  0.00000000 RMS(Int)=  0.00000000
 Iteration  1 RMS(Cart)=  0.00000000 RMS(Int)=  0.00000000
 GradGradGradGradGradGradGradGradGradGradGradGradGradGradGradGradGradGrad

 Leave Link  103 at Mon Mar  4 11:44:38 2019, MaxMem=   104857600 cpu:               0.0 elap:               0.0
 (Enter /opt/g16/l202.exe)
                          Input orientation:                          
 ---------------------------------------------------------------------
 Center     Atomic      Atomic             Coordinates (Angstroms)
 Number     Number       Type             X           Y           Z
 ---------------------------------------------------------------------
      1          1           0       -2.263972    2.948764    0.000125
      2          1           0        0.446722    2.962576    0.002385
 ---------------------------------------------------------------------
 Stoichiometry    H2
 Framework group  D*H[C*(H.H)]
 Deg. of freedom     1
 Full point group                 D*H     NOp   8
 RotChk:  IX=0 Diff= 3.16D-16
 Largest Abelian subgroup         D2H     NOp   8
 Largest concise Abelian subgroup C2      NOp   2
                         Standard orientation:                         
 ---------------------------------------------------------------------
 Center     Atomic      Atomic             Coordinates (Angstroms)
 Number     Number       Type             X           Y           Z
 ---------------------------------------------------------------------
      1          1           0        0.000000   -0.000000    1.355365
      2          1           0        0.000000   -0.000000   -1.355365
 ---------------------------------------------------------------------
 Rotational constants (GHZ):           0.0000000         136.4864341         136.4864341
 Leave Link  202 at Mon Mar  4 11:44:38 2019, MaxMem=   104857600 cpu:               0.0 elap:               0.0
 (Enter /opt/g16/l301.exe)
 Standard basis: 6-31+G(d,p) (6D, 7F)
 Ernie: Thresh=  0.10000D-02 Tol=  0.10000D-05 Strict=F.
 There are     3 symmetry adapted cartesian basis functions of AG  symmetry.
 There are     0 symmetry adapted cartesian basis functions of B1G symmetry.
 There are     1 symmetry adapted cartesian basis functions of B2G symmetry.
 There are     1 symmetry adapted cartesian basis functions of B3G symmetry.
 There are     0 symmetry adapted cartesian basis functions of AU  symmetry.
 There are     3 symmetry adapted cartesian basis functions of B1U symmetry.
 There are     1 symmetry adapted cartesian basis functions of B2U symmetry.
 There are     1 symmetry adapted cartesian basis functions of B3U symmetry.
 There are     3 symmetry adapted basis functions of AG  symmetry.
 There are     0 symmetry adapted basis functions of B1G symmetry.
 There are     1 symmetry adapted basis functions of B2G symmetry.
 There are     1 symmetry adapted basis functions of B3G symmetry.
 There are     0 symmetry adapted basis functions of AU  symmetry.
 There are     3 symmetry adapted basis functions of B1U symmetry.
 There are     1 symmetry adapted basis functions of B2U symmetry.
 There are     1 symmetry adapted basis functions of B3U symmetry.
    10 basis functions,    14 primitive gaussians,    10 cartesian basis functions
     1 alpha electrons        1 beta electrons
       nuclear repulsion energy         0.1952157486 Hartrees.
 IExCor=  402 DFT=T Ex+Corr=B3LYP ExCW=0 ScaHFX=  0.200000
 ScaDFX=  0.800000  0.720000  1.000000  0.810000 ScalE2=  1.000000  1.000000
 IRadAn=      5 IRanWt=     -1 IRanGd=            0 ICorTp=0 IEmpDi=  4
 NAtoms=    2 NActive=    2 NUniq=    1 SFac= 4.00D+00 NAtFMM=   60 NAOKFM=F Big=F
 Integral buffers will be    131072 words long.
 Raffenetti 2 integral format.
 Two-electron integral symmetry is turned on.
 Leave Link  301 at Mon Mar  4 11:44:38 2019, MaxMem=   104857600 cpu:               0.1 elap:               0.1
 (Enter /opt/g16/l302.exe)
 NPDir=0 NMtPBC=     1 NCelOv=     1 NCel=       1 NClECP=     1 NCelD=      1
         NCelK=      1 NCelE2=     1 NClLst=     1 CellRange=     0.0.
 One-electron integrals computed using PRISM.
 One-electron integral symmetry used in STVInt
 NBasis=    10 RedAO= T EigKep=  2.99D-01  NBF=     3     0     1     1     0     3     1     1
 NBsUse=    10 1.00D-06 EigRej= -1.00D+00 NBFU=     3     0     1     1     0     3     1     1
 Precomputing XC quadrature grid using
 IXCGrd= 4 IRadAn=           5 IRanWt=          -1 IRanGd=           0 AccXCQ= 0.00D+00.
 Generated NRdTot=       0 NPtTot=           0 NUsed=           0 NTot=          32
 NSgBfM=    10    10    10    10    10 MxSgAt=     2 MxSgA2=     2.
 Leave Link  302 at Mon Mar  4 11:44:38 2019, MaxMem=   104857600 cpu:               0.1 elap:               0.1
 (Enter /opt/g16/l303.exe)
 DipDrv:  MaxL=1.
 Leave Link  303 at Mon Mar  4 11:44:39 2019, MaxMem=   104857600 cpu:               0.0 elap:               0.0
 (Enter /opt/g16/l401.exe)
 Initial guess from the checkpoint file:  "H2.chk"
 B after Tr=    -0.000000    0.000000    0.000000
         Rot=    1.000000   -0.000000   -0.000000   -0.000000 Ang=   0.00 deg.
 Guess basis will be translated and rotated to current coordinates.
 JPrj=2 DoOrth=T DoCkMO=T.
 Initial guess orbital symmetries:
       Occupied  (SGG)
       Virtual   (SGU) (SGG) (SGU) (PIU) (PIU) (PIG) (PIG) (SGG)
                 (SGU)
 The electronic state of the initial guess is 1-SGG.
 Generating alternative initial guess.
 ExpMin= 1.61D-01 ExpMax= 1.87D+01 ExpMxC= 1.87D+01 IAcc=3 IRadAn=         5 AccDes= 0.00D+00
 Harris functional with IExCor=  402 and IRadAn=       5 diagonalized for initial guess.
 HarFok:  IExCor=  402 AccDes= 0.00D+00 IRadAn=         5 IDoV= 1 UseB2=F ITyADJ=14
 ICtDFT=  3500011 ScaDFX=  1.000000  1.000000  1.000000  1.000000
 FoFCou: FMM=F IPFlag=           0 FMFlag=      100000 FMFlg1=           0
         NFxFlg=           0 DoJE=T BraDBF=F KetDBF=T FulRan=T
         wScrn=  0.000000 ICntrl=       500 IOpCl=  0 I1Cent=   200000004 NGrid=           0
         NMat0=    1 NMatS0=      1 NMatT0=    0 NMatD0=    1 NMtDS0=    0 NMtDT0=    0
 Petite list used in FoFCou.
 Harris En=-0.950873544919114    
 Leave Link  401 at Mon Mar  4 11:44:39 2019, MaxMem=   104857600 cpu:               0.2 elap:               0.2
 (Enter /opt/g16/l502.exe)
 Keep R1 ints in memory in symmetry-blocked form, NReq=864985.
 FoFCou: FMM=F IPFlag=           0 FMFlag=           0 FMFlg1=           0
         NFxFlg=           0 DoJE=F BraDBF=F KetDBF=F FulRan=T
         wScrn=  0.000000 ICntrl=       600 IOpCl=  0 I1Cent=           0 NGrid=           0
         NMat0=    1 NMatS0=     55 NMatT0=    0 NMatD0=    1 NMtDS0=    0 NMtDT0=    0
 Petite list used in FoFCou.
 Closed shell SCF:
 Using DIIS extrapolation, IDIIS=  1040.
 NGot=   104857600 LenX=   104855094 LenY=   104854212
 Requested convergence on RMS density matrix=1.00D-08 within 128 cycles.
 Requested convergence on MAX density matrix=1.00D-06.
 Requested convergence on             energy=1.00D-06.
 No special actions if energy rises.
 Integral accuracy reduced to 1.0D-05 until final iterations.

 Cycle   1  Pass 0  IDiag  1:
 E=-0.941205776304923    
 DIIS: error= 5.91D-04 at cycle   1 NSaved=   1.
 NSaved= 1 IEnMin= 1 EnMin=-0.941205776304923     IErMin= 1 ErrMin= 5.91D-04
 ErrMax= 5.91D-04  0.00D+00 EMaxC= 1.00D-01 BMatC= 1.77D-06 BMatP= 1.77D-06
 IDIUse=3 WtCom= 9.94D-01 WtEn= 5.91D-03
 Coeff-Com:  0.100D+01
 Coeff-En:   0.100D+01
 Coeff:      0.100D+01
 Gap=     0.075 Goal=   None    Shift=    0.000
 RMSDP=2.18D-04 MaxDP=8.37D-04              OVMax= 1.18D-03

 Cycle   2  Pass 0  IDiag  1:
 E=-0.941208753901852     Delta-E=       -0.000002977597 Rises=F Damp=F
 DIIS: error= 2.96D-05 at cycle   2 NSaved=   2.
 NSaved= 2 IEnMin= 2 EnMin=-0.941208753901852     IErMin= 2 ErrMin= 2.96D-05
 ErrMax= 2.96D-05  0.00D+00 EMaxC= 1.00D-01 BMatC= 4.50D-09 BMatP= 1.77D-06
 IDIUse=1 WtCom= 1.00D+00 WtEn= 0.00D+00
 Coeff-Com:  0.295D-01 0.970D+00
 Coeff:      0.295D-01 0.970D+00
 Gap=     0.075 Goal=   None    Shift=    0.000
 RMSDP=1.10D-05 MaxDP=4.21D-05 DE=-2.98D-06 OVMax= 6.09D-05

 Cycle   3  Pass 0  IDiag  1:
 E=-0.941208761861669     Delta-E=       -0.000000007960 Rises=F Damp=F
 DIIS: error= 8.13D-07 at cycle   3 NSaved=   3.
 NSaved= 3 IEnMin= 3 EnMin=-0.941208761861669     IErMin= 3 ErrMin= 8.13D-07
 ErrMax= 8.13D-07  0.00D+00 EMaxC= 1.00D-01 BMatC= 4.96D-12 BMatP= 4.50D-09
 IDIUse=1 WtCom= 1.00D+00 WtEn= 0.00D+00
 Coeff-Com: -0.200D-02-0.141D-01 0.102D+01
 Coeff:     -0.200D-02-0.141D-01 0.102D+01
 Gap=     0.075 Goal=   None    Shift=    0.000
 RMSDP=2.70D-07 MaxDP=9.98D-07 DE=-7.96D-09 OVMax= 1.38D-06

 Initial convergence to 1.0D-05 achieved.  Increase integral accuracy.
 Cycle   4  Pass 1  IDiag  1:
 E=-0.941208764591568     Delta-E=       -0.000000002730 Rises=F Damp=F
 DIIS: error= 2.60D-06 at cycle   1 NSaved=   1.
 NSaved= 1 IEnMin= 1 EnMin=-0.941208764591568     IErMin= 1 ErrMin= 2.60D-06
 ErrMax= 2.60D-06  0.00D+00 EMaxC= 1.00D-01 BMatC= 4.09D-11 BMatP= 4.09D-11
 IDIUse=1 WtCom= 1.00D+00 WtEn= 0.00D+00
 Coeff-Com:  0.100D+01
 Coeff:      0.100D+01
 Gap=     0.075 Goal=   None    Shift=    0.000
 RMSDP=2.70D-07 MaxDP=9.98D-07 DE=-2.73D-09 OVMax= 5.13D-06

 Cycle   5  Pass 1  IDiag  1:
 E=-0.941208764654758     Delta-E=       -0.000000000063 Rises=F Damp=F
 DIIS: error= 1.28D-07 at cycle   2 NSaved=   2.
 NSaved= 2 IEnMin= 2 EnMin=-0.941208764654758     IErMin= 2 ErrMin= 1.28D-07
 ErrMax= 1.28D-07  0.00D+00 EMaxC= 1.00D-01 BMatC= 9.64D-14 BMatP= 4.09D-11
 IDIUse=1 WtCom= 1.00D+00 WtEn= 0.00D+00
 Coeff-Com:  0.182D-01 0.982D+00
 Coeff:      0.182D-01 0.982D+00
 Gap=     0.075 Goal=   None    Shift=    0.000
 RMSDP=4.85D-08 MaxDP=1.85D-07 DE=-6.32D-11 OVMax= 2.68D-07

 Cycle   6  Pass 1  IDiag  1:
 E=-0.941208764654919     Delta-E=       -0.000000000000 Rises=F Damp=F
 DIIS: error= 4.91D-09 at cycle   3 NSaved=   3.
 NSaved= 3 IEnMin= 3 EnMin=-0.941208764654919     IErMin= 3 ErrMin= 4.91D-09
 ErrMax= 4.91D-09  0.00D+00 EMaxC= 1.00D-01 BMatC= 1.57D-16 BMatP= 9.64D-14
 IDIUse=1 WtCom= 1.00D+00 WtEn= 0.00D+00
 Coeff-Com: -0.200D-02-0.222D-02 0.100D+01
 Coeff:     -0.200D-02-0.222D-02 0.100D+01
 Gap=     0.075 Goal=   None    Shift=    0.000
 RMSDP=1.73D-09 MaxDP=6.54D-09 DE=-1.61D-13 OVMax= 9.14D-09

 SCF Done:  E(RB3LYP) = -0.941208764655     A.U. after    6 cycles
            NFock=  6  Conv=0.17D-08     -V/T= 2.1174
 KE= 8.423328956622D-01 PE=-2.264105939697D+00 EE= 2.853485307375D-01
 Leave Link  502 at Mon Mar  4 11:44:39 2019, MaxMem=   104857600 cpu:               0.2 elap:               0.2
 (Enter /opt/g16/l701.exe)
 ... and contract with generalized density number  0.
 Compute integral first derivatives.
 Leave Link  701 at Mon Mar  4 11:44:40 2019, MaxMem=   104857600 cpu:               0.1 elap:               0.1
 (Enter /opt/g16/l702.exe)
 L702 exits ... SP integral derivatives will be done elsewhere.
 Leave Link  702 at Mon Mar  4 11:44:40 2019, MaxMem=   104857600 cpu:               0.0 elap:               0.0
 (Enter /opt/g16/l703.exe)
 Integral derivatives from FoFJK, PRISM(SPDF).
 Compute integral first derivatives, UseDBF=F ICtDFT=           0.
 Calling FoFJK, ICntrl=      2127 FMM=F ISym2X=1 I1Cent= 0 IOpClX= 0 NMat=1 NMatS=1 NMatT=0.
 FoFJK:  IHMeth= 1 ICntrl=    2127 DoSepK=F KAlg= 0 I1Cent=           0 FoldK=F
 IRaf=         0 NMat=       1 IRICut=       1 DoRegI=T DoRafI=F ISym2E= 1 IDoP0=0 IntGTp=1.
 FoFCou: FMM=F IPFlag=           0 FMFlag=      100000 FMFlg1=         800
         NFxFlg=           0 DoJE=F BraDBF=F KetDBF=F FulRan=T
         wScrn=  0.000000 ICntrl=      2127 IOpCl=  0 I1Cent=           0 NGrid=           0
         NMat0=    1 NMatS0=      1 NMatT0=    0 NMatD0=    1 NMtDS0=    0 NMtDT0=    0
 Petite list used in FoFCou.
 Leave Link  703 at Mon Mar  4 11:44:40 2019, MaxMem=   104857600 cpu:               0.1 elap:               0.1
 (Enter /opt/g16/l716.exe)
 Dipole        =-6.90253292D-31 0.00000000D+00 0.00000000D+00
 ***** Axes restored to original set *****
 -------------------------------------------------------------------
 Center     Atomic                   Forces (Hartrees/Bohr)
 Number     Number              X              Y              Z
 -------------------------------------------------------------------
      1        1           0.027810028    0.000141697    0.000023185
      2        1          -0.027810028   -0.000141697   -0.000023185
 -------------------------------------------------------------------
 Cartesian Forces:  Max     0.027810028 RMS     0.016056341
 Leave Link  716 at Mon Mar  4 11:44:40 2019, MaxMem=   104857600 cpu:               0.0 elap:               0.0
 (Enter /opt/g16/l103.exe)

 GradGradGradGradGradGradGradGradGradGradGradGradGradGradGradGradGradGrad
 Berny optimization.
 Red2BG is reusing G-inverse.
 Internal  Forces:  Max     0.027810398 RMS     0.027810398
 Search for a local minimum.
 Step number   1 out of a maximum of   20 on scan point     4 out of    29
 All quantities printed in internal units (Hartrees-Bohrs-Radians)
 RMS Force = .00000D+00 SwitMx=.10000D-02 MixMth= 1
 Mixed Optimization -- RFO/linear search
 Second derivative matrix not updated -- first step.
 The second derivative matrix:
                          R1
           R1           0.00830
 ITU=  0
     Eigenvalues --- 1000.00000
 RFO step:  Lambda= 0.00000000D+00 EMin= 1.00000000D+03
 Linear search not attempted -- first point.
 Iteration  1 RMS(Cart)=  0.00000000 RMS(Int)=  0.00000000
 Iteration  1 RMS(Cart)=  0.00000000 RMS(Int)=  0.00000000
 ITry= 1 IFail=0 DXMaxC= 1.33D-15 DCOld= 1.00D+10 DXMaxT= 3.00D-01 DXLimC= 3.00D+00 Rises=F
 ClnCor:  largest displacement from symmetrization is 8.88D-16 for atom     1.
 Variable       Old X    -DE/DX   Delta X   Delta X   Delta X     New X
                                 (Linear)    (Quad)   (Total)
    R1        5.12254  -0.02781   0.00000   0.00000   0.00000   5.12254
         Item               Value     Threshold  Converged?
 Maximum Force            0.000000     0.000450     YES
 RMS     Force            0.000000     0.000300     YES
 Maximum Displacement     0.000000     0.001800     YES
 RMS     Displacement     0.000000     0.001200     YES
 Predicted change in Energy=-0.000000D+00
 Optimization completed.
    -- Stationary point found.
                           ----------------------------
                           !   Optimized Parameters   !
                           ! (Angstroms and Degrees)  !
 --------------------------                            --------------------------
 ! Name  Definition              Value          Derivative Info.                !
 --------------------------------------------------------------------------------
 ! R1    R(1,2)                  2.7107         -DE/DX =   -0.0278              !
 --------------------------------------------------------------------------------
 Lowest energy point so far.  Saving SCF results.
 Iteration  1 RMS(Cart)=  0.13362382 RMS(Int)=  0.00000000
 Iteration  2 RMS(Cart)=  0.00000000 RMS(Int)=  0.00000000
 Iteration  1 RMS(Cart)=  0.00000000 RMS(Int)=  0.00000000
 GradGradGradGradGradGradGradGradGradGradGradGradGradGradGradGradGradGrad

 Leave Link  103 at Mon Mar  4 11:44:40 2019, MaxMem=   104857600 cpu:               0.0 elap:               0.0
 (Enter /opt/g16/l202.exe)
                          Input orientation:                          
 ---------------------------------------------------------------------
 Center     Atomic      Atomic             Coordinates (Angstroms)
 Number     Number       Type             X           Y           Z
 ---------------------------------------------------------------------
      1          1           0       -2.213973    2.949019    0.000167
      2          1           0        0.396723    2.962321    0.002343
 ---------------------------------------------------------------------
 Stoichiometry    H2
 Framework group  D*H[C*(H.H)]
 Deg. of freedom     1
 Full point group                 D*H     NOp   8
 RotChk:  IX=0 Diff= 3.16D-16
 Largest Abelian subgroup         D2H     NOp   8
 Largest concise Abelian subgroup C2      NOp   2
                         Standard orientation:                         
 ---------------------------------------------------------------------
 Center     Atomic      Atomic             Coordinates (Angstroms)
 Number     Number       Type             X           Y           Z
 ---------------------------------------------------------------------
      1          1           0        0.000000    0.000000    1.305365
      2          1           0        0.000000    0.000000   -1.305365
 ---------------------------------------------------------------------
 Rotational constants (GHZ):           0.0000000         147.1424865         147.1424865
 Leave Link  202 at Mon Mar  4 11:44:40 2019, MaxMem=   104857600 cpu:               0.0 elap:               0.0
 (Enter /opt/g16/l301.exe)
 Standard basis: 6-31+G(d,p) (6D, 7F)
 Ernie: Thresh=  0.10000D-02 Tol=  0.10000D-05 Strict=F.
 There are     3 symmetry adapted cartesian basis functions of AG  symmetry.
 There are     0 symmetry adapted cartesian basis functions of B1G symmetry.
 There are     1 symmetry adapted cartesian basis functions of B2G symmetry.
 There are     1 symmetry adapted cartesian basis functions of B3G symmetry.
 There are     0 symmetry adapted cartesian basis functions of AU  symmetry.
 There are     3 symmetry adapted cartesian basis functions of B1U symmetry.
 There are     1 symmetry adapted cartesian basis functions of B2U symmetry.
 There are     1 symmetry adapted cartesian basis functions of B3U symmetry.
 There are     3 symmetry adapted basis functions of AG  symmetry.
 There are     0 symmetry adapted basis functions of B1G symmetry.
 There are     1 symmetry adapted basis functions of B2G symmetry.
 There are     1 symmetry adapted basis functions of B3G symmetry.
 There are     0 symmetry adapted basis functions of AU  symmetry.
 There are     3 symmetry adapted basis functions of B1U symmetry.
 There are     1 symmetry adapted basis functions of B2U symmetry.
 There are     1 symmetry adapted basis functions of B3U symmetry.
    10 basis functions,    14 primitive gaussians,    10 cartesian basis functions
     1 alpha electrons        1 beta electrons
       nuclear repulsion energy         0.2026931875 Hartrees.
 IExCor=  402 DFT=T Ex+Corr=B3LYP ExCW=0 ScaHFX=  0.200000
 ScaDFX=  0.800000  0.720000  1.000000  0.810000 ScalE2=  1.000000  1.000000
 IRadAn=      5 IRanWt=     -1 IRanGd=            0 ICorTp=0 IEmpDi=  4
 NAtoms=    2 NActive=    2 NUniq=    1 SFac= 4.00D+00 NAtFMM=   60 NAOKFM=F Big=F
 Integral buffers will be    131072 words long.
 Raffenetti 2 integral format.
 Two-electron integral symmetry is turned on.
 Leave Link  301 at Mon Mar  4 11:44:41 2019, MaxMem=   104857600 cpu:               0.1 elap:               0.1
 (Enter /opt/g16/l302.exe)
 NPDir=0 NMtPBC=     1 NCelOv=     1 NCel=       1 NClECP=     1 NCelD=      1
         NCelK=      1 NCelE2=     1 NClLst=     1 CellRange=     0.0.
 One-electron integrals computed using PRISM.
 One-electron integral symmetry used in STVInt
 NBasis=    10 RedAO= T EigKep=  2.94D-01  NBF=     3     0     1     1     0     3     1     1
 NBsUse=    10 1.00D-06 EigRej= -1.00D+00 NBFU=     3     0     1     1     0     3     1     1
 Precomputing XC quadrature grid using
 IXCGrd= 4 IRadAn=           5 IRanWt=          -1 IRanGd=           0 AccXCQ= 0.00D+00.
 Generated NRdTot=       0 NPtTot=           0 NUsed=           0 NTot=          32
 NSgBfM=    10    10    10    10    10 MxSgAt=     2 MxSgA2=     2.
 Leave Link  302 at Mon Mar  4 11:44:41 2019, MaxMem=   104857600 cpu:               0.1 elap:               0.1
 (Enter /opt/g16/l303.exe)
 DipDrv:  MaxL=1.
 Leave Link  303 at Mon Mar  4 11:44:41 2019, MaxMem=   104857600 cpu:               0.1 elap:               0.0
 (Enter /opt/g16/l401.exe)
 Initial guess from the checkpoint file:  "H2.chk"
 B after Tr=    -0.000000   -0.000000   -0.000000
         Rot=    1.000000    0.000000   -0.000000    0.000000 Ang=   0.00 deg.
 Guess basis will be translated and rotated to current coordinates.
 JPrj=2 DoOrth=T DoCkMO=T.
 Initial guess orbital symmetries:
       Occupied  (SGG)
       Virtual   (SGU) (SGG) (SGU) (PIU) (PIU) (PIG) (PIG) (SGG)
                 (SGU)
 The electronic state of the initial guess is 1-SGG.
 Generating alternative initial guess.
 ExpMin= 1.61D-01 ExpMax= 1.87D+01 ExpMxC= 1.87D+01 IAcc=3 IRadAn=         5 AccDes= 0.00D+00
 Harris functional with IExCor=  402 and IRadAn=       5 diagonalized for initial guess.
 HarFok:  IExCor=  402 AccDes= 0.00D+00 IRadAn=         5 IDoV= 1 UseB2=F ITyADJ=14
 ICtDFT=  3500011 ScaDFX=  1.000000  1.000000  1.000000  1.000000
 FoFCou: FMM=F IPFlag=           0 FMFlag=      100000 FMFlg1=           0
         NFxFlg=           0 DoJE=T BraDBF=F KetDBF=T FulRan=T
         wScrn=  0.000000 ICntrl=       500 IOpCl=  0 I1Cent=   200000004 NGrid=           0
         NMat0=    1 NMatS0=      1 NMatT0=    0 NMatD0=    1 NMtDS0=    0 NMtDT0=    0
 Petite list used in FoFCou.
 Harris En=-0.955542108470729    
 Leave Link  401 at Mon Mar  4 11:44:41 2019, MaxMem=   104857600 cpu:               0.2 elap:               0.2
 (Enter /opt/g16/l502.exe)
 Keep R1 ints in memory in symmetry-blocked form, NReq=864985.
 FoFCou: FMM=F IPFlag=           0 FMFlag=           0 FMFlg1=           0
         NFxFlg=           0 DoJE=F BraDBF=F KetDBF=F FulRan=T
         wScrn=  0.000000 ICntrl=       600 IOpCl=  0 I1Cent=           0 NGrid=           0
         NMat0=    1 NMatS0=     55 NMatT0=    0 NMatD0=    1 NMtDS0=    0 NMtDT0=    0
 Petite list used in FoFCou.
 Closed shell SCF:
 Using DIIS extrapolation, IDIIS=  1040.
 NGot=   104857600 LenX=   104855094 LenY=   104854212
 Requested convergence on RMS density matrix=1.00D-08 within 128 cycles.
 Requested convergence on MAX density matrix=1.00D-06.
 Requested convergence on             energy=1.00D-06.
 No special actions if energy rises.
 Integral accuracy reduced to 1.0D-05 until final iterations.

 Cycle   1  Pass 0  IDiag  1:
 E=-0.946744761730623    
 DIIS: error= 7.29D-04 at cycle   1 NSaved=   1.
 NSaved= 1 IEnMin= 1 EnMin=-0.946744761730623     IErMin= 1 ErrMin= 7.29D-04
 ErrMax= 7.29D-04  0.00D+00 EMaxC= 1.00D-01 BMatC= 2.46D-06 BMatP= 2.46D-06
 IDIUse=3 WtCom= 9.93D-01 WtEn= 7.29D-03
 Coeff-Com:  0.100D+01
 Coeff-En:   0.100D+01
 Coeff:      0.100D+01
 Gap=     0.082 Goal=   None    Shift=    0.000
 RMSDP=2.63D-04 MaxDP=1.01D-03              OVMax= 1.45D-03

 Cycle   2  Pass 0  IDiag  1:
 E=-0.946749076057099     Delta-E=       -0.000004314326 Rises=F Damp=F
 DIIS: error= 3.50D-05 at cycle   2 NSaved=   2.
 NSaved= 2 IEnMin= 2 EnMin=-0.946749076057099     IErMin= 2 ErrMin= 3.50D-05
 ErrMax= 3.50D-05  0.00D+00 EMaxC= 1.00D-01 BMatC= 5.99D-09 BMatP= 2.46D-06
 IDIUse=1 WtCom= 1.00D+00 WtEn= 0.00D+00
 Coeff-Com:  0.337D-01 0.966D+00
 Coeff:      0.337D-01 0.966D+00
 Gap=     0.082 Goal=   None    Shift=    0.000
 RMSDP=1.27D-05 MaxDP=4.85D-05 DE=-4.31D-06 OVMax= 7.13D-05

 Cycle   3  Pass 0  IDiag  1:
 E=-0.946749086887930     Delta-E=       -0.000000010831 Rises=F Damp=F
 DIIS: error= 8.74D-07 at cycle   3 NSaved=   3.
 NSaved= 3 IEnMin= 3 EnMin=-0.946749086887930     IErMin= 3 ErrMin= 8.74D-07
 ErrMax= 8.74D-07  0.00D+00 EMaxC= 1.00D-01 BMatC= 4.80D-12 BMatP= 5.99D-09
 IDIUse=1 WtCom= 1.00D+00 WtEn= 0.00D+00
 Coeff-Com: -0.191D-02-0.208D-01 0.102D+01
 Coeff:     -0.191D-02-0.208D-01 0.102D+01
 Gap=     0.082 Goal=   None    Shift=    0.000
 RMSDP=2.31D-07 MaxDP=8.28D-07 DE=-1.08D-08 OVMax= 1.15D-06

 Initial convergence to 1.0D-05 achieved.  Increase integral accuracy.
 Cycle   4  Pass 1  IDiag  1:
 E=-0.946748221467331     Delta-E=        0.000000865421 Rises=F Damp=F
 DIIS: error= 9.47D-07 at cycle   1 NSaved=   1.
 NSaved= 1 IEnMin= 1 EnMin=-0.946748221467331     IErMin= 1 ErrMin= 9.47D-07
 ErrMax= 9.47D-07  0.00D+00 EMaxC= 1.00D-01 BMatC= 7.10D-12 BMatP= 7.10D-12
 IDIUse=1 WtCom= 1.00D+00 WtEn= 0.00D+00
 Coeff-Com:  0.100D+01
 Coeff:      0.100D+01
[...]
 (Enter /opt/g16/l502.exe)
 Keep R1 ints in memory in symmetry-blocked form, NReq=864985.
 FoFCou: FMM=F IPFlag=           0 FMFlag=           0 FMFlg1=           0
         NFxFlg=           0 DoJE=F BraDBF=F KetDBF=F FulRan=T
         wScrn=  0.000000 ICntrl=       600 IOpCl=  0 I1Cent=           0 NGrid=           0
         NMat0=    1 NMatS0=     55 NMatT0=    0 NMatD0=    1 NMtDS0=    0 NMtDT0=    0
 Petite list used in FoFCou.
 Closed shell SCF:
 Using DIIS extrapolation, IDIIS=  1040.
 NGot=   104857600 LenX=   104855094 LenY=   104854212
 Requested convergence on RMS density matrix=1.00D-08 within 128 cycles.
 Requested convergence on MAX density matrix=1.00D-06.
 Requested convergence on             energy=1.00D-06.
 No special actions if energy rises.
 Integral accuracy reduced to 1.0D-05 until final iterations.

 Cycle   1  Pass 0  IDiag  1:
 E=-0.794168135295799E-01
 DIIS: error= 3.04D-02 at cycle   1 NSaved=   1.
 NSaved= 1 IEnMin= 1 EnMin=-0.794168135295799E-01 IErMin= 1 ErrMin= 3.04D-02
 ErrMax= 3.04D-02  0.00D+00 EMaxC= 1.00D-01 BMatC= 4.53D-03 BMatP= 4.53D-03
 IDIUse=3 WtCom= 6.96D-01 WtEn= 3.04D-01
 Coeff-Com:  0.100D+01
 Coeff-En:   0.100D+01
 Coeff:      0.100D+01
 Recover alternate guess density for next cycle.
 RMSDP=1.59D-02 MaxDP=5.83D-02              OVMax= 0.00D+00

 Cycle   2  Pass 0  IDiag  1:
 E=-0.579857243831206E-01 Delta-E=        0.021431089146 Rises=F Damp=F
 Switch densities from cycles 1 and 2 for lowest energy.
 DIIS: error= 6.42D-02 at cycle   2 NSaved=   2.
 NSaved= 2 IEnMin= 1 EnMin=-0.794168135295799E-01 IErMin= 1 ErrMin= 3.04D-02
 ErrMax= 6.42D-02  0.00D+00 EMaxC= 1.00D+00 BMatC= 1.82D-02 BMatP= 4.53D-03
 IDIUse=1 WtCom= 1.00D+00 WtEn= 0.00D+00
 Coeff-Com:  0.668D+00 0.332D+00
 Coeff:      0.668D+00 0.332D+00
 Gap=     0.997 Goal=   None    Shift=    0.000
 RMSDP=4.49D-03 MaxDP=1.60D-02 DE= 2.14D-02 OVMax= 4.42D-02

 Problem detected with inexpensive integrals.
 Switching to full accuracy and repeating last cycle.
 Cycle   3  Pass 1  IDiag  1:
 E=-0.579498397071054E-01 Delta-E=        0.000035884676 Rises=F Damp=F
 DIIS: error= 6.42D-02 at cycle   1 NSaved=   1.
 NSaved= 1 IEnMin= 1 EnMin=-0.579498397071054E-01 IErMin= 1 ErrMin= 6.42D-02
 ErrMax= 6.42D-02  0.00D+00 EMaxC= 1.00D+00 BMatC= 1.82D-02 BMatP= 1.82D-02
 IDIUse=1 WtCom= 1.00D+00 WtEn= 0.00D+00
 Coeff-Com:  0.100D+01
 Coeff:      0.100D+01
 Gap=     0.964 Goal=   None    Shift=    0.000
 GapD=    0.964 DampG=2.000 DampE=0.500 DampFc=1.0000 IDamp=-1.
 RMSDP=1.37D-02 MaxDP=5.11D-02 DE= 3.59D-05 OVMax= 2.25D-02

 Cycle   4  Pass 1  IDiag  1:
 E=-0.836581985348279E-01 Delta-E=       -0.025708358828 Rises=F Damp=F
 DIIS: error= 1.41D-02 at cycle   2 NSaved=   2.
 NSaved= 2 IEnMin= 2 EnMin=-0.836581985348279E-01 IErMin= 2 ErrMin= 1.41D-02
 ErrMax= 1.41D-02  0.00D+00 EMaxC= 1.00D+00 BMatC= 8.37D-04 BMatP= 1.82D-02
 IDIUse=1 WtCom= 1.00D+00 WtEn= 0.00D+00
 Coeff-Com:  0.176D+00 0.824D+00
 Coeff:      0.176D+00 0.824D+00
 Gap=     0.811 Goal=   None    Shift=    0.000
 GapD=    0.811 DampG=2.000 DampE=0.500 DampFc=1.0000 IDamp=-1.
 RMSDP=2.29D-03 MaxDP=8.86D-03 DE=-2.57D-02 OVMax= 2.19D-02

 Cycle   5  Pass 1  IDiag  1:
 E=-0.848567678737955E-01 Delta-E=       -0.001198569339 Rises=F Damp=F
 DIIS: error= 1.24D-04 at cycle   3 NSaved=   3.
 NSaved= 3 IEnMin= 3 EnMin=-0.848567678737955E-01 IErMin= 3 ErrMin= 1.24D-04
 ErrMax= 1.24D-04  0.00D+00 EMaxC= 1.00D+00 BMatC= 6.85D-08 BMatP= 8.37D-04
 IDIUse=1 WtCom= 1.00D+00 WtEn= 0.00D+00
 Coeff-Com: -0.196D-02-0.757D-04 0.100D+01
 Coeff:     -0.196D-02-0.757D-04 0.100D+01
 Gap=     0.811 Goal=   None    Shift=    0.000
 RMSDP=1.97D-05 MaxDP=7.39D-05 DE=-1.20D-03 OVMax= 1.88D-04

 Cycle   6  Pass 1  IDiag  1:
 E=-0.848568605148792E-01 Delta-E=       -0.000000092641 Rises=F Damp=F
 DIIS: error= 3.63D-07 at cycle   4 NSaved=   4.
 NSaved= 4 IEnMin= 4 EnMin=-0.848568605148792E-01 IErMin= 4 ErrMin= 3.63D-07
 ErrMax= 3.63D-07  0.00D+00 EMaxC= 1.00D+00 BMatC= 7.97D-13 BMatP= 6.85D-08
 IDIUse=1 WtCom= 1.00D+00 WtEn= 0.00D+00
 Coeff-Com:  0.125D-04-0.317D-03-0.404D-01 0.104D+01
 Coeff:      0.125D-04-0.317D-03-0.404D-01 0.104D+01
 Gap=     0.811 Goal=   None    Shift=    0.000
 RMSDP=8.98D-08 MaxDP=3.32D-07 DE=-9.26D-08 OVMax= 5.68D-07

 Cycle   7  Pass 1  IDiag  1:
 E=-0.848568605158522E-01 Delta-E=       -0.000000000001 Rises=F Damp=F
 DIIS: error= 8.26D-10 at cycle   5 NSaved=   5.
 NSaved= 5 IEnMin= 5 EnMin=-0.848568605158522E-01 IErMin= 5 ErrMin= 8.26D-10
 ErrMax= 8.26D-10  0.00D+00 EMaxC= 1.00D+00 BMatC= 2.73D-18 BMatP= 7.97D-13
 IDIUse=1 WtCom= 1.00D+00 WtEn= 0.00D+00
 Large coefficients: NSaved=  5 BigCof=    0.00 CofMax=   10.00 Det=-1.08D-26
 Inversion failed.  Reducing to  4 matrices.
 Coeff-Com: -0.499D-09 0.545D-05-0.577D-03 0.100D+01
 Coeff:     -0.499D-09 0.545D-05-0.577D-03 0.100D+01
 Gap=     0.811 Goal=   None    Shift=    0.000
 RMSDP=1.49D-10 MaxDP=5.97D-10 DE=-9.73D-13 OVMax= 1.36D-09

 SCF Done:  E(RB3LYP) = -0.848568605159E-01 A.U. after    7 cycles
            NFock=  7  Conv=0.15D-09     -V/T= 1.0421
 KE= 2.015373769610D+00 PE=-5.476839609899D+00 EE= 8.654482791987D-01
 Leave Link  502 at Mon Mar  4 11:45:40 2019, MaxMem=   104857600 cpu:               0.3 elap:               0.3
 (Enter /opt/g16/l701.exe)
 ... and contract with generalized density number  0.
 Compute integral first derivatives.
 Leave Link  701 at Mon Mar  4 11:45:40 2019, MaxMem=   104857600 cpu:               0.1 elap:               0.1
 (Enter /opt/g16/l702.exe)
 L702 exits ... SP integral derivatives will be done elsewhere.
 Leave Link  702 at Mon Mar  4 11:45:41 2019, MaxMem=   104857600 cpu:               0.0 elap:               0.0
 (Enter /opt/g16/l703.exe)
 Integral derivatives from FoFJK, PRISM(SPDF).
 Compute integral first derivatives, UseDBF=F ICtDFT=           0.
 Calling FoFJK, ICntrl=      2127 FMM=F ISym2X=1 I1Cent= 0 IOpClX= 0 NMat=1 NMatS=1 NMatT=0.
 FoFJK:  IHMeth= 1 ICntrl=    2127 DoSepK=F KAlg= 0 I1Cent=           0 FoldK=F
 IRaf=         0 NMat=       1 IRICut=       1 DoRegI=T DoRafI=F ISym2E= 1 IDoP0=0 IntGTp=1.
 FoFCou: FMM=F IPFlag=           0 FMFlag=      100000 FMFlg1=         800
         NFxFlg=           0 DoJE=F BraDBF=F KetDBF=F FulRan=T
         wScrn=  0.000000 ICntrl=      2127 IOpCl=  0 I1Cent=           0 NGrid=           0
         NMat0=    1 NMatS0=      1 NMatT0=    0 NMatD0=    1 NMtDS0=    0 NMtDT0=    0
 Petite list used in FoFCou.
 Leave Link  703 at Mon Mar  4 11:45:41 2019, MaxMem=   104857600 cpu:               0.2 elap:               0.1
 (Enter /opt/g16/l716.exe)
 Dipole        =-9.24446373D-33 0.00000000D+00-2.77555756D-17
 ***** Axes restored to original set *****
 -------------------------------------------------------------------
 Center     Atomic                   Forces (Hartrees/Bohr)
 Number     Number              X              Y              Z
 -------------------------------------------------------------------
      1        1          -5.476100074   -0.027901702   -0.004565402
      2        1           5.476100074    0.027901702    0.004565402
 -------------------------------------------------------------------
 Cartesian Forces:  Max     5.476100074 RMS     3.161669990
 Leave Link  716 at Mon Mar  4 11:45:41 2019, MaxMem=   104857600 cpu:               0.0 elap:               0.0
 (Enter /opt/g16/l103.exe)

 GradGradGradGradGradGradGradGradGradGradGradGradGradGradGradGradGradGrad
 Berny optimization.
 Red2BG is reusing G-inverse.
 Internal  Forces:  Max     5.476173059 RMS     5.476173059
 Search for a local minimum.
 Step number   1 out of a maximum of   20 on scan point    29 out of    29
 All quantities printed in internal units (Hartrees-Bohrs-Radians)
 RMS Force = .00000D+00 SwitMx=.10000D-02 MixMth= 1
 Mixed Optimization -- RFO/linear search
 Second derivative matrix not updated -- first step.
 The second derivative matrix:
                          R1
           R1           0.00830
 ITU=  0
     Eigenvalues --- 1000.00000
 RFO step:  Lambda= 0.00000000D+00 EMin= 1.00000000D+03
 Linear search not attempted -- first point.
 Iteration  1 RMS(Cart)=  0.00000000 RMS(Int)=  0.00000000
 Iteration  1 RMS(Cart)=  0.00000000 RMS(Int)=  0.00000000
 ITry= 1 IFail=0 DXMaxC= 2.22D-16 DCOld= 1.00D+10 DXMaxT= 3.00D-01 DXLimC= 3.00D+00 Rises=F
 ClnCor:  largest displacement from symmetrization is 4.34D-19 for atom     1.
 Variable       Old X    -DE/DX   Delta X   Delta X   Delta X     New X
                                 (Linear)    (Quad)   (Total)
    R1        0.39822   5.47617   0.00000   0.00000  -0.00000   0.39822
         Item               Value     Threshold  Converged?
 Maximum Force            0.000000     0.000450     YES
 RMS     Force            0.000000     0.000300     YES
 Maximum Displacement     0.000000     0.001800     YES
 RMS     Displacement     0.000000     0.001200     YES
 Predicted change in Energy=-2.431909D-15
 Optimization completed.
    -- Stationary point found.
                           ----------------------------
                           !   Optimized Parameters   !
                           ! (Angstroms and Degrees)  !
 --------------------------                            --------------------------
 ! Name  Definition              Value          Derivative Info.                !
 --------------------------------------------------------------------------------
 ! R1    R(1,2)                  0.2107         -DE/DX =    5.4762              !
 --------------------------------------------------------------------------------
 Lowest energy point so far.  Saving SCF results.
 Summary of Optimized Potential Surface Scan (add -1.0 to energies):
                           1         2         3         4         5
     Eigenvalues --     0.07229   0.06827   0.06378   0.05879   0.05325
           R1           3.01073   2.91073   2.81073   2.71073   2.61073
                           6         7         8         9        10
     Eigenvalues --     0.04711   0.04030   0.03278   0.02446   0.01529
           R1           2.51073   2.41073   2.31073   2.21073   2.11073
                          11        12        13        14        15
     Eigenvalues --     0.00521  -0.00586  -0.01797  -0.03117  -0.04550
           R1           2.01073   1.91073   1.81073   1.71073   1.61073
                          16        17        18        19        20
     Eigenvalues --    -0.06095  -0.07750  -0.09499  -0.11315  -0.13150
           R1           1.51073   1.41073   1.31073   1.21073   1.11073
                          21        22        23        24        25
     Eigenvalues --    -0.14919  -0.16479  -0.17582  -0.17779  -0.16250
           R1           1.01073   0.91073   0.81073   0.71073   0.61073
                          26        27        28        29
     Eigenvalues --    -0.11397   0.00163   0.26524   0.91514
           R1           0.51073   0.41073   0.31073   0.21073
 Largest change from initial coordinates is atom    2       1.400 Angstoms.
 GradGradGradGradGradGradGradGradGradGradGradGradGradGradGradGradGradGrad

 Leave Link  103 at Mon Mar  4 11:45:41 2019, MaxMem=   104857600 cpu:               0.0 elap:               0.0
 (Enter /opt/g16/l202.exe)
                          Input orientation:                          
 ---------------------------------------------------------------------
 Center     Atomic      Atomic             Coordinates (Angstroms)
 Number     Number       Type             X           Y           Z
 ---------------------------------------------------------------------
      1          1           0       -1.013989    2.955133    0.001167
      2          1           0       -0.803261    2.956207    0.001343
 ---------------------------------------------------------------------
 Stoichiometry    H2
 Framework group  D*H[C*(H.H)]
 Deg. of freedom     1
 Full point group                 D*H     NOp   8
 RotChk:  IX=0 Diff= 4.41D-16
 Largest Abelian subgroup         D2H     NOp   8
 Largest concise Abelian subgroup C2      NOp   2
                         Standard orientation:                         
 ---------------------------------------------------------------------
 Center     Atomic      Atomic             Coordinates (Angstroms)
 Number     Number       Type             X           Y           Z
 ---------------------------------------------------------------------
      1          1           0        0.000000    0.000000    0.105365
      2          1           0        0.000000   -0.000000   -0.105365
 ---------------------------------------------------------------------
 Rotational constants (GHZ):           0.0000000       22584.4125440       22584.4125440
 Leave Link  202 at Mon Mar  4 11:45:41 2019, MaxMem=   104857600 cpu:               0.0 elap:               0.0
 (Enter /opt/g16/l601.exe)
 Copying SCF densities to generalized density rwf, IOpCl= 0 IROHF=0.

 **********************************************************************

            Population analysis using the SCF Density.

 **********************************************************************

 Orbital symmetries:
       Occupied  (SGG)
       Virtual   (SGU) (SGG) (PIU) (PIU) (SGU) (SGG) (PIG) (PIG)
                 (SGU)
 The electronic state is 1-SGG.
 Alpha  occ. eigenvalues --   -0.58843
 Alpha virt. eigenvalues --    0.22272   0.39238   1.79452   1.79452   1.88736
 Alpha virt. eigenvalues --    3.06458   3.18348   3.18348  13.07597
          Condensed to atoms (all electrons):
               1          2
     1  H    0.504088   0.495912
     2  H    0.495912   0.504088
 Mulliken charges:
               1
     1  H   -0.000000
     2  H   -0.000000
 Sum of Mulliken charges =  -0.00000
 Mulliken charges with hydrogens summed into heavy atoms:
               1
 Electronic spatial extent (au):  <R**2>=              2.8137
 Charge=             -0.0000 electrons
 Dipole moment (field-independent basis, Debye):
    X=             -0.0000    Y=              0.0000    Z=             -0.0000  Tot=              0.0000
 Quadrupole moment (field-independent basis, Debye-Ang):
   XX=             -1.2609   YY=             -1.2609   ZZ=             -1.1560
   XY=              0.0000   XZ=             -0.0000   YZ=             -0.0000
 Traceless Quadrupole moment (field-independent basis, Debye-Ang):
   XX=             -0.0350   YY=             -0.0350   ZZ=              0.0699
   XY=              0.0000   XZ=             -0.0000   YZ=             -0.0000
 Octapole moment (field-independent basis, Debye-Ang**2):
  XXX=             -0.0000  YYY=              0.0000  ZZZ=              0.0000  XYY=             -0.0000
  XXY=              0.0000  XXZ=              0.0000  XZZ=             -0.0000  YZZ=              0.0000
  YYZ=              0.0000  XYZ=             -0.0000
 Hexadecapole moment (field-independent basis, Debye-Ang**3):
 XXXX=             -0.7724 YYYY=             -0.7724 ZZZZ=             -0.7867 XXXY=              0.0000
 XXXZ=              0.0000 YYYX=              0.0000 YYYZ=             -0.0000 ZZZX=              0.0000
 ZZZY=             -0.0000 XXYY=             -0.2575 XXZZ=             -0.2601 YYZZ=             -0.2601
 XXYZ=             -0.0000 YYXZ=              0.0000 ZZXY=              0.0000
 N-N= 2.511160700574D+00 E-N=-5.476839611167D+00  KE= 2.015373769610D+00
 Symmetry AG   KE= 2.015373769610D+00
 Symmetry B1G  KE= 0.000000000000D+00
 Symmetry B2G  KE= 1.007963227718D-33
 Symmetry B3G  KE= 1.043609758951D-33
 Symmetry AU   KE= 0.000000000000D+00
 Symmetry B1U  KE= 7.823996459405D-33
 Symmetry B2U  KE= 2.586427703792D-35
 Symmetry B3U  KE= 2.684114481942D-35
 No NMR shielding tensors so no spin-rotation constants.
 Leave Link  601 at Mon Mar  4 11:45:42 2019, MaxMem=   104857600 cpu:               0.1 elap:               0.1
 (Enter /opt/g16/l607.exe)
 ******************************Gaussian NBO Version 3.1******************************
             N A T U R A L   A T O M I C   O R B I T A L   A N D
          N A T U R A L   B O N D   O R B I T A L   A N A L Y S I S
 ******************************Gaussian NBO Version 3.1******************************
       /RESON  / : Allow strongly delocalized NBO set

 Analyzing the SCF density

 Job title: H2                                                              

 Storage needed:       370 in NPA ( 104857572 available)


 NATURAL POPULATIONS:  Natural atomic orbital occupancies 
                                                          
   NAO  Atom  No  lang   Type(AO)    Occupancy      Energy
 ----------------------------------------------------------
     1    H    1  S      Val( 1S)     0.99932       0.63550
     2    H    1  S      Ryd( 2S)     0.00000       2.42646
     3    H    1  px     Ryd( 2p)     0.00000       2.48900
     4    H    1  py     Ryd( 2p)     0.00000       2.48900
     5    H    1  pz     Ryd( 2p)     0.00068       5.96532

     6    H    2  S      Val( 1S)     0.99932       0.63550
     7    H    2  S      Ryd( 2S)     0.00000       2.42646
     8    H    2  px     Ryd( 2p)     0.00000       2.48900
     9    H    2  py     Ryd( 2p)     0.00000       2.48900
    10    H    2  pz     Ryd( 2p)     0.00068       5.96532


 Summary of Natural Population Analysis:                  
                                                          
                                       Natural Population 
                Natural  -----------------------------------------------
    Atom  No    Charge         Core      Valence    Rydberg      Total
 -----------------------------------------------------------------------
      H    1   -0.00000      0.00000     0.99932    0.00068     1.00000
      H    2   -0.00000      0.00000     0.99932    0.00068     1.00000
 =======================================================================
   * Total *   -0.00000      0.00000     1.99863    0.00137     2.00000

                                 Natural Population      
 --------------------------------------------------------
   Valence                    1.99863 ( 99.9316% of   2)
   Natural Minimal Basis      1.99863 ( 99.9316% of   2)
   Natural Rydberg Basis      0.00137 (  0.0684% of   2)
 --------------------------------------------------------

    Atom  No          Natural Electron Configuration
 ----------------------------------------------------------------------------
      H    1            1S( 1.00)
      H    2            1S( 1.00)


 NBO analysis skipped by request.
 Leave Link  607 at Mon Mar  4 11:45:42 2019, MaxMem=   104857600 cpu:               0.6 elap:               0.7
 (Enter /opt/g16/l9999.exe)
 1\1\GINC-DYME\Scan\RB3LYP\6-31+G(d,p)\H2\MONTOYA\04-Mar-2019\0\\#p opt
 =modredundant B3LYP/6-31+G(d,p) Pop=NPA\\H2\\0,1\H,-1.0139886587,2.955
 1331535,0.0011671587\H,-0.8032613413,2.9562068465,0.0013428413\\Versio
 n=EM64L-G16RevB.01\State=1-SGG\HF=-0.9277068,-0.9317348,-0.9362205,-0.
 9412088,-0.9467482,-0.9528918,-0.9596968,-0.9672244,-0.9755391,-0.9847
 07,-0.994794,-1.0058635,-1.0179735,-1.0311738,-1.0454986,-1.0609544,-1
 .0774958,-1.0949881,-1.1131548,-1.131502,-1.1491918,-1.164795,-1.17581
 59,-1.1777909,-1.162501,-1.1139709,-0.9983696,-0.7347576,-0.0848569\RM
 SD=3.538e-09,2.527e-10,1.498e-09,1.729e-09,8.011e-10,3.832e-11,8.501e-
 11,4.426e-11,3.411e-11,5.201e-09,4.831e-10,1.315e-09,1.809e-09,1.349e-
 09,8.103e-10,3.984e-10,3.493e-10,5.994e-10,8.016e-10,1.063e-09,1.312e-
 09,1.590e-09,2.240e-10,7.100e-10,2.387e-09,6.501e-09,3.520e-10,2.828e-
 10,1.492e-10\PG=D*H [C*(H1.H1)]\\@


 IN THE LONG RUN, DIGGING FOR TRUTH HAS ALWAYS PROVED NOT ONLY 
 MORE INTERESTING BUT MORE PROFITABLE THAN DIGGING FOR GOLD.

                             -- GEORGE R. HARRISON
 Job cpu time:       0 days  0 hours  0 minutes 34.3 seconds.
 Elapsed time:       0 days  0 hours  0 minutes 35.5 seconds.
 File lengths (MBytes):  RWF=     17 Int=      0 D2E=      0 Chk=      3 Scr=      2
 Normal termination of Gaussian 16 at Mon Mar  4 11:45:43 2019.
