acidocloroacetico                                                       
FOpt      RB3LYP                                                      6-31+G(d,p)         
Number of atoms                            I                8
Info1-9                                    I   N=           9
          15          15           0           0           0         110
           2          18        -502
Full Title                                 C   N=           2
acidocloroacetico       
Route                                      C   N=           3
#p B3LYP/6-31+G(d,p) Opt Pop=NPA    
Charge                                     I                0
Multiplicity                               I                1
Number of electrons                        I               48
Number of alpha electrons                  I               24
Number of beta electrons                   I               24
Number of basis functions                  I              114
Number of independent functions            I              114
Number of point charges in /Mol/           I                0
Number of translation vectors              I                0
Atomic numbers                             I   N=           8
           6           8           8           6           1           1
          17           1
Nuclear charges                            R   N=           8
  6.00000000E+00  8.00000000E+00  8.00000000E+00  6.00000000E+00  1.00000000E+00
  1.00000000E+00  1.70000000E+01  1.00000000E+00
Current cartesian coordinates              R   N=          24
  2.03423611E+00 -4.23369424E-02 -5.02997319E-04  4.06087299E+00 -1.08769819E+00
  2.64414290E-04  1.80897236E+00  2.48145180E+00  3.54582496E-05 -3.67663521E-01
 -1.65454438E+00 -8.90313361E-05  3.35753689E-02  2.96667532E+00  2.03920159E-05
 -3.53916548E-01 -2.84707263E+00 -1.67989161E+00 -3.31083916E+00  1.03438862E-01
  6.57747081E-05 -3.53591353E-01 -2.84680428E+00  1.67990624E+00
Number of symbols in /Mol/                 I                0
Force Field                                I                0
Atom Types                                 C   N=           8
                                                            
                                    
Int Atom Types                             I   N=           8
           0           0           0           0           0           0
           0           0
MM charges                                 R   N=           8
  0.00000000E+00  0.00000000E+00  0.00000000E+00  0.00000000E+00  0.00000000E+00
  0.00000000E+00  0.00000000E+00  0.00000000E+00
Integer atomic weights                     I   N=           8
          12          16          16          12           1           1
          35           1
Real atomic weights                        R   N=           8
  1.20000000E+01  1.59949146E+01  1.59949146E+01  1.20000000E+01  1.00782504E+00
  1.00782504E+00  3.49688527E+01  1.00782504E+00
Atom fragment info                         I   N=           8
           0           0           0           0           0           0
           0           0
Atom residue num                           I   N=           8
           0           0           0           0           0           0
           0           0
Nuclear spins                              I   N=           8
           0           0           0           0           1           1
           3           1
Nuclear ZEff                               R   N=           8
 -3.60000000E+00 -5.60000000E+00 -5.60000000E+00 -3.60000000E+00 -1.00000000E+00
 -1.00000000E+00 -1.42400000E+01 -1.00000000E+00
Nuclear ZNuc                               R   N=           8
  6.00000000E+00  8.00000000E+00  8.00000000E+00  6.00000000E+00  1.00000000E+00
  1.00000000E+00  1.70000000E+01  1.00000000E+00
Nuclear QMom                               R   N=           8
  0.00000000E+00  0.00000000E+00  0.00000000E+00  0.00000000E+00  0.00000000E+00
  0.00000000E+00 -8.16500000E+00  0.00000000E+00
Nuclear GFac                               R   N=           8
  0.00000000E+00  0.00000000E+00  0.00000000E+00  0.00000000E+00  2.79284600E+00
  2.79284600E+00  8.21874000E-01  2.79284600E+00
MicOpt                                     I   N=           8
          -1          -1          -1          -1          -1          -1
          -1          -1
Number of residues                         I                0
Number of secondary structures             I                0
Redundant internal dimensions              I   N=           4
          25           7          10           8
Redundant internal coordinate indices      I   N=         100
           1           2           0           0           1           3
           0           0           1           4           0           0
           3           5           0           0           4           6
           0           0           4           7           0           0
           4           8           0           0           2           1
           3           0           2           1           4           0
           3           1           4           0           1           3
           5           0           1           4           6           0
           1           4           7           0           1           4
           8           0           6           4           7           0
           6           4           8           0           7           4
           8           0           2           1           3           5
           4           1           3           5           2           1
           4           6           2           1           4           7
           2           1           4           8           3           1
           4           6           3           1           4           7
           3           1           4           8
Redundant internal coordinates             R   N=          25
  2.28035913E+00  2.53382195E+00  2.89280743E+00  1.84050980E+00  2.06010905E+00
  3.42823395E+00  2.06011305E+00  2.13603260E+00  2.07422690E+00  2.07292553E+00
  1.92660559E+00  1.89331280E+00  2.01200515E+00  1.89334349E+00  1.87822181E+00
  1.90698118E+00  1.87821602E+00 -3.14114706E+00 -3.67641452E-04 -1.03528087E+00
  3.14114728E+00  1.03437465E+00  2.10709580E+00  3.38648732E-04 -2.10643398E+00
ZRed-IntVec                                I   N=          25
           0           0           0           0           0           0
           0           0           0           0           0           0
           0           0           0           0           0           0
           0           0           0           0           0           0
           0
ZRed-FPVec                                 R   N=          25
  0.00000000E+00  0.00000000E+00  0.00000000E+00  0.00000000E+00  0.00000000E+00
  0.00000000E+00  0.00000000E+00  0.00000000E+00  0.00000000E+00  0.00000000E+00
  0.00000000E+00  0.00000000E+00  0.00000000E+00  0.00000000E+00  0.00000000E+00
  0.00000000E+00  0.00000000E+00  0.00000000E+00  0.00000000E+00  0.00000000E+00
  0.00000000E+00  0.00000000E+00  0.00000000E+00  0.00000000E+00  0.00000000E+00
ZRed-Constraint1                           R   N=          25
  2.30614711E+00  2.55699611E+00  2.85372039E+00  1.82436155E+00  2.09799753E+00
  3.37545379E+00  2.09801282E+00  2.07490392E+00  2.07216690E+00  2.13611448E+00
  2.15052191E+00  1.90116355E+00  1.99921241E+00  1.90115253E+00  1.88338252E+00
  1.89306739E+00  1.88338487E+00 -3.14159131E+00 -8.98877272E-06 -1.03092769E+00
 -3.14159046E+00  1.03093718E+00  2.11067528E+00  1.25074989E-05 -2.11064515E+00
ZRed-Constraint2                           R   N=          25
  0.00000000E+00  0.00000000E+00  0.00000000E+00  0.00000000E+00  0.00000000E+00
  0.00000000E+00  0.00000000E+00  0.00000000E+00  0.00000000E+00  0.00000000E+00
  0.00000000E+00  0.00000000E+00  0.00000000E+00  0.00000000E+00  0.00000000E+00
  0.00000000E+00  0.00000000E+00  0.00000000E+00  0.00000000E+00  0.00000000E+00
  0.00000000E+00  0.00000000E+00  0.00000000E+00  0.00000000E+00  0.00000000E+00
SymInf integers                            I   N=          26
           1           1           1           1           1           0
           0           0           0           0           0           0
           0           0           0           0           0           0
           0           0           0           0           0           0
           0           0
RotTr to input orientation                 R   N=          12
  8.95587017E-01 -3.29180942E-01 -2.99272122E-01 -4.44800690E-01 -6.75739064E-01
 -5.87817202E-01 -8.73164383E-03  6.59557901E-01 -7.51603042E-01 -2.50114202E+00
  3.68187430E+00  3.74953310E-01
Number of contracted shells                I               35
Number of primitive shells                 I               81
Pure/Cartesian d shells                    I                1
Pure/Cartesian f shells                    I                0
Highest angular momentum                   I                2
Largest degree of contraction              I                6
Shell types                                I   N=          35
           0          -1          -1          -1           2           0
          -1          -1          -1           2           0          -1
          -1          -1           2           0          -1          -1
          -1           2           0           0           1           0
           0           1           0          -1          -1          -1
          -1           2           0           0           1
Number of primitives per shell             I   N=          35
           6           3           1           1           1           6
           3           1           1           1           6           3
           1           1           1           6           3           1
           1           1           3           1           1           3
           1           1           6           6           3           1
           1           1           3           1           1
Shell to atom map                          I   N=          35
           1           1           1           1           1           2
           2           2           2           2           3           3
           3           3           3           4           4           4
           4           4           5           5           5           6
           6           6           7           7           7           7
           7           7           8           8           8
Primitive exponents                        R   N=          81
  3.04752488E+03  4.57369518E+02  1.03948685E+02  2.92101553E+01  9.28666296E+00
  3.16392696E+00  7.86827235E+00  1.88128854E+00  5.44249258E-01  1.68714478E-01
  4.38000000E-02  8.00000000E-01  5.48467166E+03  8.25234946E+02  1.88046958E+02
  5.29645000E+01  1.68975704E+01  5.79963534E+00  1.55396162E+01  3.59993359E+00
  1.01376175E+00  2.70005823E-01  8.45000000E-02  8.00000000E-01  5.48467166E+03
  8.25234946E+02  1.88046958E+02  5.29645000E+01  1.68975704E+01  5.79963534E+00
  1.55396162E+01  3.59993359E+00  1.01376175E+00  2.70005823E-01  8.45000000E-02
  8.00000000E-01  3.04752488E+03  4.57369518E+02  1.03948685E+02  2.92101553E+01
  9.28666296E+00  3.16392696E+00  7.86827235E+00  1.88128854E+00  5.44249258E-01
  1.68714478E-01  4.38000000E-02  8.00000000E-01  1.87311370E+01  2.82539436E+00
  6.40121692E-01  1.61277759E-01  1.10000000E+00  1.87311370E+01  2.82539436E+00
  6.40121692E-01  1.61277759E-01  1.10000000E+00  2.51801000E+04  3.78035000E+03
  8.60474000E+02  2.42145000E+02  7.73349000E+01  2.62470000E+01  4.91765000E+02
  1.16984000E+02  3.74153000E+01  1.37834000E+01  5.45215000E+00  2.22588000E+00
  3.18649000E+00  1.14427000E+00  4.20377000E-01  1.42657000E-01  4.83000000E-02
  7.50000000E-01  1.87311370E+01  2.82539436E+00  6.40121692E-01  1.61277759E-01
  1.10000000E+00
Contraction coefficients                   R   N=          81
  1.83473713E-03  1.40373228E-02  6.88426223E-02  2.32184443E-01  4.67941348E-01
  3.62311985E-01 -1.19332420E-01 -1.60854152E-01  1.14345644E+00  1.00000000E+00
  1.00000000E+00  1.00000000E+00  1.83107443E-03  1.39501722E-02  6.84450781E-02
  2.32714336E-01  4.70192898E-01  3.58520853E-01 -1.10777550E-01 -1.48026263E-01
  1.13076702E+00  1.00000000E+00  1.00000000E+00  1.00000000E+00  1.83107443E-03
  1.39501722E-02  6.84450781E-02  2.32714336E-01  4.70192898E-01  3.58520853E-01
 -1.10777550E-01 -1.48026263E-01  1.13076702E+00  1.00000000E+00  1.00000000E+00
  1.00000000E+00  1.83473713E-03  1.40373228E-02  6.88426223E-02  2.32184443E-01
  4.67941348E-01  3.62311985E-01 -1.19332420E-01 -1.60854152E-01  1.14345644E+00
  1.00000000E+00  1.00000000E+00  1.00000000E+00  3.34946043E-02  2.34726953E-01
  8.13757326E-01  1.00000000E+00  1.00000000E+00  3.34946043E-02  2.34726953E-01
  8.13757326E-01  1.00000000E+00  1.00000000E+00  1.83295985E-03  1.40341988E-02
  6.90973943E-02  2.37451980E-01  4.83033960E-01  3.39855972E-01 -2.29739142E-03
 -3.07137189E-02 -1.12528069E-01  4.50163278E-02  5.89353363E-01  4.65206287E-01
 -2.51828028E-01  6.15892514E-02  1.06018433E+00  1.00000000E+00  1.00000000E+00
  1.00000000E+00  3.34946043E-02  2.34726953E-01  8.13757326E-01  1.00000000E+00
  1.00000000E+00
P(S=P) Contraction coefficients            R   N=          81
  0.00000000E+00  0.00000000E+00  0.00000000E+00  0.00000000E+00  0.00000000E+00
  0.00000000E+00  6.89990666E-02  3.16423961E-01  7.44308291E-01  1.00000000E+00
  1.00000000E+00  0.00000000E+00  0.00000000E+00  0.00000000E+00  0.00000000E+00
  0.00000000E+00  0.00000000E+00  0.00000000E+00  7.08742682E-02  3.39752839E-01
  7.27158577E-01  1.00000000E+00  1.00000000E+00  0.00000000E+00  0.00000000E+00
  0.00000000E+00  0.00000000E+00  0.00000000E+00  0.00000000E+00  0.00000000E+00
  7.08742682E-02  3.39752839E-01  7.27158577E-01  1.00000000E+00  1.00000000E+00
  0.00000000E+00  0.00000000E+00  0.00000000E+00  0.00000000E+00  0.00000000E+00
  0.00000000E+00  0.00000000E+00  6.89990666E-02  3.16423961E-01  7.44308291E-01
  1.00000000E+00  1.00000000E+00  0.00000000E+00  0.00000000E+00  0.00000000E+00
  0.00000000E+00  0.00000000E+00  0.00000000E+00  0.00000000E+00  0.00000000E+00
  0.00000000E+00  0.00000000E+00  0.00000000E+00  0.00000000E+00  0.00000000E+00
  0.00000000E+00  0.00000000E+00  0.00000000E+00  0.00000000E+00  3.98940088E-03
  3.03177067E-02  1.29880029E-01  3.27951072E-01  4.53527100E-01  2.52154056E-01
 -1.42993147E-02  3.23572333E-01  7.43507765E-01  1.00000000E+00  1.00000000E+00
  0.00000000E+00  0.00000000E+00  0.00000000E+00  0.00000000E+00  0.00000000E+00
  0.00000000E+00
Coordinates of each shell                  R   N=         105
  2.03423611E+00 -4.23369424E-02 -5.02997319E-04  2.03423611E+00 -4.23369424E-02
 -5.02997319E-04  2.03423611E+00 -4.23369424E-02 -5.02997319E-04  2.03423611E+00
 -4.23369424E-02 -5.02997319E-04  2.03423611E+00 -4.23369424E-02 -5.02997319E-04
  4.06087299E+00 -1.08769819E+00  2.64414290E-04  4.06087299E+00 -1.08769819E+00
  2.64414290E-04  4.06087299E+00 -1.08769819E+00  2.64414290E-04  4.06087299E+00
 -1.08769819E+00  2.64414290E-04  4.06087299E+00 -1.08769819E+00  2.64414290E-04
  1.80897236E+00  2.48145180E+00  3.54582496E-05  1.80897236E+00  2.48145180E+00
  3.54582496E-05  1.80897236E+00  2.48145180E+00  3.54582496E-05  1.80897236E+00
  2.48145180E+00  3.54582496E-05  1.80897236E+00  2.48145180E+00  3.54582496E-05
 -3.67663521E-01 -1.65454438E+00 -8.90313361E-05 -3.67663521E-01 -1.65454438E+00
 -8.90313361E-05 -3.67663521E-01 -1.65454438E+00 -8.90313361E-05 -3.67663521E-01
 -1.65454438E+00 -8.90313361E-05 -3.67663521E-01 -1.65454438E+00 -8.90313361E-05
  3.35753689E-02  2.96667532E+00  2.03920159E-05  3.35753689E-02  2.96667532E+00
  2.03920159E-05  3.35753689E-02  2.96667532E+00  2.03920159E-05 -3.53916548E-01
 -2.84707263E+00 -1.67989161E+00 -3.53916548E-01 -2.84707263E+00 -1.67989161E+00
 -3.53916548E-01 -2.84707263E+00 -1.67989161E+00 -3.31083916E+00  1.03438862E-01
  6.57747081E-05 -3.31083916E+00  1.03438862E-01  6.57747081E-05 -3.31083916E+00
  1.03438862E-01  6.57747081E-05 -3.31083916E+00  1.03438862E-01  6.57747081E-05
 -3.31083916E+00  1.03438862E-01  6.57747081E-05 -3.31083916E+00  1.03438862E-01
  6.57747081E-05 -3.53591353E-01 -2.84680428E+00  1.67990624E+00 -3.53591353E-01
 -2.84680428E+00  1.67990624E+00 -3.53591353E-01 -2.84680428E+00  1.67990624E+00
Num ILSW                                   I              100
ILSW                                       I   N=         100
           0           1           0           1           2           0
           0           0           0           0         402          -1
           5           0           0           0           2           0
           0           0           0           0           1           0
           1           0           0           0           0           0
           0           0      100000           0          -1           0
           0           0           0           0           0           0
           0           0           0           1           0           0
           0 -2000000000           1           0           0           0
           0           0           4          52           0           0
           0           0           5           0           0           0
           0           0           0           8           0           1
           0           0           0           0           0           0
           0           0           0           0           0           0
           0           0           0           0           0           0
           0           0           0           0           0           0
           0           0           0           0
Num RLSW                                   I               52
RLSW                                       R   N=          52
  8.00000000E-01  7.20000000E-01  1.00000000E+00  8.10000000E-01  2.00000000E-01
  0.00000000E+00  0.00000000E+00  1.00000000E+00  0.00000000E+00  0.00000000E+00
  0.00000000E+00  0.00000000E+00  1.00000000E+00  0.00000000E+00  0.00000000E+00
  0.00000000E+00  0.00000000E+00  1.00000000E+00  0.00000000E+00  0.00000000E+00
  0.00000000E+00  0.00000000E+00  1.00000000E+00  0.00000000E+00  0.00000000E+00
  0.00000000E+00  0.00000000E+00  1.00000000E+00  0.00000000E+00  0.00000000E+00
  0.00000000E+00  0.00000000E+00  1.00000000E+00  0.00000000E+00  0.00000000E+00
  0.00000000E+00  0.00000000E+00  0.00000000E+00  1.00000000E+00  1.00000000E+00
  0.00000000E+00  1.00000000E+00  0.00000000E+00  0.00000000E+00  0.00000000E+00
  0.00000000E+00  0.00000000E+00  0.00000000E+00  0.00000000E+00  0.00000000E+00
  0.00000000E+00  0.00000000E+00
MxBond                                     I                4
NBond                                      I   N=           8
           3           1           2           4           1           1
           1           1
IBond                                      I   N=          32
           2           3           4           0           1           0
           0           0           1           5           0           0
           1           6           7           8           3           0
           0           0           4           0           0           0
           4           0           0           0           4           0
           0           0
RBond                                      R   N=          32
  2.00000000E+00  1.50000000E+00  1.00000000E+00  0.00000000E+00  2.00000000E+00
  0.00000000E+00  0.00000000E+00  0.00000000E+00  1.50000000E+00  1.00000000E+00
  0.00000000E+00  0.00000000E+00  1.00000000E+00  1.00000000E+00  1.00000000E+00
  1.00000000E+00  1.00000000E+00  0.00000000E+00  0.00000000E+00  0.00000000E+00
  1.00000000E+00  0.00000000E+00  0.00000000E+00  0.00000000E+00  1.00000000E+00
  0.00000000E+00  0.00000000E+00  0.00000000E+00  1.00000000E+00  0.00000000E+00
  0.00000000E+00  0.00000000E+00
Virial Ratio                               R      2.005094019339613E+00
SCF Energy                                 R     -6.886870859638743E+02
Total Energy                               R     -6.886870859638743E+02
RMS Force                                  R      8.563278171628857E-05
RMS Density                                R      1.673406626000737E-09
Job Status                                 I                1
Nuclear derivative order                   I                1
External E-field                           R   N=          35
  0.00000000E+00  0.00000000E+00  0.00000000E+00  0.00000000E+00  0.00000000E+00
  0.00000000E+00  0.00000000E+00  0.00000000E+00  0.00000000E+00  0.00000000E+00
  0.00000000E+00  0.00000000E+00  0.00000000E+00  0.00000000E+00  0.00000000E+00
  0.00000000E+00  0.00000000E+00  0.00000000E+00  0.00000000E+00  0.00000000E+00
  0.00000000E+00  0.00000000E+00  0.00000000E+00  0.00000000E+00  0.00000000E+00
  0.00000000E+00  0.00000000E+00  0.00000000E+00  0.00000000E+00  0.00000000E+00
  0.00000000E+00  0.00000000E+00  0.00000000E+00  0.00000000E+00  0.00000000E+00
IOpCl                                      I                0
IROHF                                      I                0
Alpha Orbital Energies                     R   N=         114
 -1.01582334E+02 -1.92307696E+01 -1.91707189E+01 -1.03580604E+01 -1.02926738E+01
 -9.49828482E+00 -7.26214369E+00 -7.25287138E+00 -7.25204113E+00 -1.13610077E+00
 -1.05416872E+00 -8.95857343E-01 -7.47919569E-01 -6.47424929E-01 -5.60702997E-01
 -5.19345453E-01 -4.89064419E-01 -4.49765382E-01 -4.44796932E-01 -4.12553620E-01
 -3.60366025E-01 -3.53690899E-01 -3.34486973E-01 -3.03561322E-01 -2.65583339E-02
 -2.54498343E-02 -1.32656163E-02  2.69410403E-02  3.94743508E-02  4.77702863E-02
  6.40721007E-02  7.44579736E-02  7.94889818E-02  8.06328851E-02  9.00767077E-02
  1.10041312E-01  1.17931090E-01  1.40122982E-01  1.85266495E-01  1.86960666E-01
  1.88016188E-01  2.03192864E-01  2.14828819E-01  2.56469598E-01  2.66477494E-01
  2.79060049E-01  2.81683726E-01  3.07223153E-01  3.20622396E-01  3.35290891E-01
  3.65592558E-01  4.14377899E-01  5.49900103E-01  5.67187087E-01  5.80351368E-01
  6.03689455E-01  6.18815220E-01  6.58806267E-01  6.59641058E-01  6.88326119E-01
  7.49569561E-01  7.75781563E-01  8.28905015E-01  8.41352112E-01  9.02073428E-01
  9.38077851E-01  9.69366004E-01  9.72212882E-01  1.04374222E+00  1.06186407E+00
  1.10936971E+00  1.13067121E+00  1.16025206E+00  1.24313395E+00  1.27460018E+00
  1.30002460E+00  1.31354917E+00  1.33377112E+00  1.41744821E+00  1.42079727E+00
  1.52464363E+00  1.53804181E+00  1.58616381E+00  1.68726103E+00  1.72982062E+00
  1.75273560E+00  1.81414146E+00  1.84974231E+00  1.93008766E+00  1.99780123E+00
  2.05505526E+00  2.09832610E+00  2.17563911E+00  2.26409245E+00  2.28364158E+00
  2.41108912E+00  2.43728712E+00  2.50901729E+00  2.53930036E+00  2.60185897E+00
  2.69766223E+00  2.72763790E+00  2.76874462E+00  2.94067720E+00  3.03476767E+00
  3.20563811E+00  3.28085422E+00  3.38711733E+00  3.48423747E+00  4.17270591E+00
  4.20852115E+00  4.32854705E+00  4.38116855E+00  4.55466414E+00
Alpha MO coefficients                      R   N=       12996
 -3.21273032E-06  1.40582867E-05  1.41468770E-06  3.78706708E-06 -9.99462475E-09
 -1.28739011E-04 -5.54347630E-05  6.65160353E-05 -3.73259605E-08  1.82688903E-05
 -4.24521880E-05  4.09891928E-05  1.16784530E-10 -4.65243122E-05 -7.41521625E-06
 -7.33773580E-06  5.04637258E-06 -7.67582494E-09  3.38506875E-09 -3.80715366E-06
 -1.67843656E-05 -5.93205686E-08  1.92316034E-06 -1.65857300E-09  1.26432016E-04
 -6.68783564E-05  3.30250228E-05 -1.77537583E-08  6.92603282E-05 -3.44547572E-06
 -8.37571359E-06 -1.27509607E-08  2.12722614E-06 -9.68654820E-06 -1.43503148E-05
 -1.35584676E-05  7.35491140E-09 -4.89491365E-09 -8.08950660E-07  4.75348617E-06
  1.23570440E-06  6.59887701E-07 -8.46915357E-11 -1.39130701E-05  4.64002333E-05
 -1.61756797E-06  5.91454504E-09 -1.44248222E-04  3.62817577E-05  2.05558776E-05
  1.16225249E-08 -2.36673305E-05  2.22334417E-06  1.63110818E-06 -6.76710090E-06
  1.11956550E-10 -1.42016404E-09 -8.63806852E-06  2.65467946E-05 -5.38042196E-05
  2.11718631E-05  1.07844177E-09  1.61770821E-04  4.42904710E-06 -9.09433561E-07
  2.89137293E-08  2.77683493E-04 -4.72707034E-05  3.75641789E-05  1.07914614E-08
 -2.26429979E-05 -1.17321168E-05  7.65073479E-06  1.68851490E-05  2.24408697E-09
 -1.22893007E-09 -1.29922246E-05  1.04503228E-04  1.53871327E-05 -9.61091368E-06
  6.76981017E-10 -2.98436876E-05 -6.29344051E-05  1.55188566E-05 -1.69623222E-05
 -1.08555584E-05  9.95997069E-01  1.51512919E-02  4.22114925E-05 -2.04130378E-05
 -2.77890315E-09 -2.10636564E-02 -1.51308582E-05  8.34530601E-06  3.76554031E-10
  1.88322439E-03 -5.12343014E-05  1.98846151E-05 -7.68216795E-10 -5.24128697E-04
 -6.04433113E-05  2.46019750E-05  4.32118973E-09  7.50969643E-03  7.52129082E-03
  7.52789458E-03  7.85723325E-06  5.24418074E-11  4.29716111E-10 -2.98457131E-05
 -6.29731098E-05  1.55213669E-05 -1.69630687E-05  1.08566551E-05 -4.58202838E-05
  1.38918615E-04 -5.78234025E-06  4.22154287E-04  9.77886853E-08  1.94258271E-04
 -6.29882940E-04 -5.41634053E-04 -1.48335157E-07  2.73844836E-03 -9.03607586E-04
  2.40223919E-03  7.99005413E-07 -1.11043203E-04  1.82037978E-04 -1.43147188E-04
 -2.57279613E-05 -2.15915551E-08  7.64652842E-08 -3.38832418E-05  9.55356108E-05
 -6.20417280E-06 -8.78302927E-06 -2.17685003E-08 -1.25336575E-04  9.71189734E-06
  1.21906331E-04  9.11541977E-08  1.26524828E-03 -1.80274945E-04  2.28301430E-04
 -4.18896713E-07  2.62706454E-05 -4.12949648E-05  7.20326091E-05  4.98439385E-05
 -1.43732369E-08 -2.36353483E-08  9.92565105E-01  2.53844521E-02 -9.38621038E-04
 -7.18479787E-04 -3.35064064E-07  1.49897472E-02  7.19938279E-04  4.47310920E-04
  2.15514372E-07 -6.45804186E-03 -7.46186529E-04  3.23583306E-04 -5.05361426E-08
 -8.63218131E-03 -8.78995514E-03 -8.57223381E-03  6.51387020E-06 -8.36034107E-09
 -5.78038013E-08  1.28653330E-05  1.13437603E-04  1.07600077E-05 -2.44997170E-05
 -1.89285594E-08 -6.99582367E-04 -3.43567241E-04 -3.78478509E-05  2.40894599E-07
 -3.71037495E-03  1.73014979E-03 -1.56173608E-03 -5.09672532E-07 -2.29568040E-06
 -4.52504787E-05  2.26197759E-05 -3.02644920E-05  1.63249229E-08 -1.29934248E-08
  3.82890755E-04 -7.12933817E-04 -2.23464167E-05  4.67510727E-06 -1.18965478E-09
  5.49783800E-06  1.55387043E-04  2.54044254E-06 -4.72508054E-06  7.16838157E-06
 -7.68813021E-07  3.89599931E-06 -1.57343916E-07  4.57497274E-07 -1.07488589E-09
 -4.23245955E-05 -2.91256485E-06 -6.57544168E-06  7.05508315E-09 -1.27935471E-04
  1.58033163E-04  1.13886517E-04 -5.75143400E-08  3.27442818E-03  6.90619019E-04
 -7.20995493E-04  1.34444054E-07  5.08781850E-05  1.96565555E-05  7.34966368E-06
  2.92603007E-05 -7.21404925E-09  7.68728611E-09  5.42645361E-06  1.55328723E-04
  2.55447342E-06 -4.73019076E-06 -7.16354770E-06 -3.41265843E-06  4.30797847E-04
  1.85261215E-04 -8.11669967E-05  6.42073476E-08 -3.82817454E-04 -9.85855683E-04
  5.56310759E-04 -3.07773118E-07  7.10499735E-03  5.74849185E-04 -2.46383609E-03
  1.02554621E-06 -4.90078922E-04 -2.21106720E-04 -1.57703796E-04  2.64924280E-04
 -1.44956640E-07  9.60278463E-08  9.92577739E-01  2.52633212E-02 -1.22301092E-03
  6.27713268E-04 -5.38756921E-07  1.56569262E-02  1.68842038E-04 -1.53568295E-04
  8.38327921E-08 -6.57126506E-03 -3.31717405E-05  1.51220540E-04 -2.67063130E-08
 -8.46159657E-03 -8.59251023E-03 -8.63350127E-03 -7.84959052E-05  7.70849870E-08
 -3.11277203E-08  5.72837805E-05  8.48992704E-05 -2.22328692E-06  9.38897518E-06
 -3.49832673E-08 -3.78314316E-04  4.05060274E-05 -1.60762037E-05  1.52479016E-07
  7.60844641E-04  6.30319439E-05  5.24288481E-05 -2.98442195E-07 -2.41764982E-05
  1.17294388E-05  3.08855654E-05  1.52145967E-04  3.84712340E-09  5.18634443E-08
  1.99601794E-06  9.22329736E-05 -5.90974370E-05  1.54604174E-05 -4.42104497E-09
 -2.24685159E-04  1.92149522E-04 -1.40190676E-04  7.26326712E-08 -6.41549782E-03
 -1.32824837E-03 -7.29500052E-04  9.37200980E-08 -9.95620759E-05  2.11882834E-06
 -2.30594387E-05  1.31422215E-05 -2.13833698E-08 -2.62716444E-09  4.71961870E-05
 -1.21434481E-04  5.02235971E-05  6.76981961E-05  8.25107025E-09 -1.24650265E-05
  2.64495271E-04  3.68449863E-05  2.28835036E-05  7.50605297E-06  3.11995613E-07
  1.21818499E-05 -3.21279366E-06  1.05223780E-06  4.59777252E-09  8.20447313E-06
  2.40468857E-05 -1.35030333E-06 -2.48993429E-08 -8.06004540E-05  3.33137081E-05
 -1.14276797E-04  5.04927726E-08  1.59822036E-03  6.19996836E-04  1.15325280E-04
 -2.17762535E-07  2.12809375E-05  4.04143182E-05  2.89531568E-05 -2.34169937E-05
 -1.70550047E-09  6.15013700E-09 -1.24492969E-05  2.64474294E-04  3.68693445E-05
  2.28852941E-05 -7.50341786E-06  9.93166703E-01  4.94262760E-02  4.06866182E-04
  6.50113418E-04  3.60169499E-07 -1.64929576E-02  2.32537388E-03 -6.15414650E-05
 -9.39198791E-07 -1.31323260E-02  4.43910570E-03  9.21234713E-04 -3.41948052E-07
 -8.28209714E-03 -8.17593806E-03 -9.05532472E-03 -4.28741960E-04  2.43658823E-07
 -1.79188068E-09 -1.30460878E-04  4.49653118E-04 -2.26539126E-05 -4.95342789E-06
 -3.08917566E-08 -2.36230510E-03  1.05400646E-03 -5.96987134E-04  7.75576749E-07
  4.81491780E-03 -2.96154757E-03  6.31035213E-04 -5.99767840E-07  6.20449456E-05
  2.13046942E-04  4.07386256E-04  1.65824853E-04 -2.75215802E-07  1.68673882E-07
  7.06686663E-07  3.92481167E-04  3.01216050E-05  8.27427322E-05 -2.31463392E-08
 -9.32877290E-04 -4.25301553E-04  7.28301963E-04  4.40062207E-07  7.19722863E-03
 -2.05410110E-03 -2.41978518E-03 -8.54520187E-07  3.18113246E-04 -4.42608749E-04
  3.85121788E-04  6.89230281E-05  3.80844555E-08 -3.08733867E-07  1.51621147E-03
 -8.36459605E-05 -1.98598895E-05 -1.06148149E-04  7.29736352E-08  3.97535427E-03
  9.24984417E-04  1.37467105E-03 -5.36222996E-07  1.30712160E-02 -1.46286261E-04
  2.45595729E-03 -1.05312827E-06 -3.60501390E-04 -2.20538044E-04 -1.42412730E-04