 Entering Gaussian System, Link 0=g16
 Input=acidocloroacetico.com
 Output=acidocloroacetico.log
 Initial command:
 /opt/g16/l1.exe "/home/montoya/Montoya/EfectoInductivo/Acidocloroacetico/Gau-22310.inp" -scrdir="/home/montoya/Montoya/EfectoInductivo/Acidocloroacetico/"
 Entering Link 1 = /opt/g16/l1.exe PID=     22312.
  
 Copyright (c) 1988-2017, Gaussian, Inc.  All Rights Reserved.
  
 This is part of the Gaussian(R) 16 program.  It is based on
 the Gaussian(R) 09 system (copyright 2009, Gaussian, Inc.),
 the Gaussian(R) 03 system (copyright 2003, Gaussian, Inc.),
 the Gaussian(R) 98 system (copyright 1998, Gaussian, Inc.),
 the Gaussian(R) 94 system (copyright 1995, Gaussian, Inc.),
 the Gaussian 92(TM) system (copyright 1992, Gaussian, Inc.),
 the Gaussian 90(TM) system (copyright 1990, Gaussian, Inc.),
 the Gaussian 88(TM) system (copyright 1988, Gaussian, Inc.),
 the Gaussian 86(TM) system (copyright 1986, Carnegie Mellon
 University), and the Gaussian 82(TM) system (copyright 1983,
 Carnegie Mellon University). Gaussian is a federally registered
 trademark of Gaussian, Inc.
  
 This software contains proprietary and confidential information,
 including trade secrets, belonging to Gaussian, Inc.
  
 This software is provided under written license and may be
 used, copied, transmitted, or stored only in accord with that
 written license.
  
 The following legend is applicable only to US Government
 contracts under FAR:
  
                    RESTRICTED RIGHTS LEGEND
  
 Use, reproduction and disclosure by the US Government is
 subject to restrictions as set forth in subparagraphs (a)
 and (c) of the Commercial Computer Software - Restricted
 Rights clause in FAR 52.227-19.
  
 Gaussian, Inc.
 340 Quinnipiac St., Bldg. 40, Wallingford CT 06492
  
  
 ---------------------------------------------------------------
 Warning -- This program may not be used in any manner that
 competes with the business of Gaussian, Inc. or will provide
 assistance to any competitor of Gaussian, Inc.  The licensee
 of this program is prohibited from giving any competitor of
 Gaussian, Inc. access to this program.  By using this program,
 the user acknowledges that Gaussian, Inc. is engaged in the
 business of creating and licensing software in the field of
 computational chemistry and represents and warrants to the
 licensee that it is not a competitor of Gaussian, Inc. and that
 it will not use this program in any manner prohibited above.
 ---------------------------------------------------------------
  

 Cite this work as:
 Gaussian 16, Revision B.01,
 M. J. Frisch, G. W. Trucks, H. B. Schlegel, G. E. Scuseria, 
 M. A. Robb, J. R. Cheeseman, G. Scalmani, V. Barone, 
 G. A. Petersson, H. Nakatsuji, X. Li, M. Caricato, A. V. Marenich, 
 J. Bloino, B. G. Janesko, R. Gomperts, B. Mennucci, H. P. Hratchian, 
 J. V. Ortiz, A. F. Izmaylov, J. L. Sonnenberg, D. Williams-Young, 
 F. Ding, F. Lipparini, F. Egidi, J. Goings, B. Peng, A. Petrone, 
 T. Henderson, D. Ranasinghe, V. G. Zakrzewski, J. Gao, N. Rega, 
 G. Zheng, W. Liang, M. Hada, M. Ehara, K. Toyota, R. Fukuda, 
 J. Hasegawa, M. Ishida, T. Nakajima, Y. Honda, O. Kitao, H. Nakai, 
 T. Vreven, K. Throssell, J. A. Montgomery, Jr., J. E. Peralta, 
 F. Ogliaro, M. J. Bearpark, J. J. Heyd, E. N. Brothers, K. N. Kudin, 
 V. N. Staroverov, T. A. Keith, R. Kobayashi, J. Normand, 
 K. Raghavachari, A. P. Rendell, J. C. Burant, S. S. Iyengar, 
 J. Tomasi, M. Cossi, J. M. Millam, M. Klene, C. Adamo, R. Cammi, 
 J. W. Ochterski, R. L. Martin, K. Morokuma, O. Farkas, 
 J. B. Foresman, and D. J. Fox, Gaussian, Inc., Wallingford CT, 2016.
 
 ******************************************
 Gaussian 16:  EM64L-G16RevB.01 20-Dec-2017
                25-Feb-2019 
 ******************************************
 %Chk=acidocloroacetico.chk
 --------------------------------
 #p B3LYP/6-31+G(d,p) Opt Pop=NPA
 --------------------------------
 1/18=20,19=15,26=3,38=1/1,3;
 2/9=110,12=2,17=6,18=5,40=1/2;
 3/5=1,6=6,7=111,11=2,25=1,30=1,71=1,74=-5/1,2,3;
 4//1;
 5/5=2,38=5/2;
 6/7=2,8=2,9=2,10=2,28=1,40=-1/1,7;
 7//1,2,3,16;
 1/18=20,19=15,26=3/3(2);
 2/9=110/2;
 99//99;
 2/9=110/2;
 3/5=1,6=6,7=111,11=2,25=1,30=1,71=1,74=-5/1,2,3;
 4/5=5,16=3,69=1/1;
 5/5=2,38=5/2;
 7//1,2,3,16;
 1/18=20,19=15,26=3/3(-5);
 2/9=110/2;
 6/7=2,8=2,9=2,10=2,19=2,28=1,40=-1/1,7;
 99/9=1/99;
 Leave Link    1 at Mon Feb 25 12:04:57 2019, MaxMem=           0 cpu:               0.0 elap:               0.1
 (Enter /opt/g16/l101.exe)
 -----------------
 acidocloroacetico
 -----------------
 Symbolic Z-matrix:
 Charge =  0 Multiplicity = 1
 C                    -0.39073   1.63615  -0.08636 
 O                     0.82951   1.63307  -0.10323 
 O                    -1.0573    0.74725  -0.85865 
 C                    -1.10188   2.63338   0.79697 
 H                    -2.02066   0.69486  -0.89344 
 H                    -0.78743   2.4709    1.84925 
 Cl                   -2.8846    2.54001   0.73574 
 H                    -0.80315   3.65916   0.4951 
 
 ITRead=  0  0  0  0  0  0  0  0
 MicOpt= -1 -1 -1 -1 -1 -1 -1 -1
 NAtoms=      8 NQM=        8 NQMF=       0 NMMI=      0 NMMIF=      0
                NMic=       0 NMicF=      0.
                    Isotopes and Nuclear Properties:
 (Nuclear quadrupole moments (NQMom) in fm**2, nuclear magnetic moments (NMagM)
  in nuclear magnetons)

  Atom         1           2           3           4           5           6           7           8
 IAtWgt=          12          16          16          12           1           1          35           1
 AtmWgt=  12.0000000  15.9949146  15.9949146  12.0000000   1.0078250   1.0078250  34.9688527   1.0078250
 NucSpn=           0           0           0           0           1           1           3           1
 AtZEff=  -0.0000000  -0.0000000  -0.0000000  -0.0000000  -0.0000000  -0.0000000  -0.0000000  -0.0000000
 NQMom=    0.0000000   0.0000000   0.0000000   0.0000000   0.0000000   0.0000000  -8.1650000   0.0000000
 NMagM=    0.0000000   0.0000000   0.0000000   0.0000000   2.7928460   2.7928460   0.8218740   2.7928460
 AtZNuc=   6.0000000   8.0000000   8.0000000   6.0000000   1.0000000   1.0000000  17.0000000   1.0000000
 Leave Link  101 at Mon Feb 25 12:04:58 2019, MaxMem=   104857600 cpu:               0.2 elap:               0.2
 (Enter /opt/g16/l103.exe)

 GradGradGradGradGradGradGradGradGradGradGradGradGradGradGradGradGradGrad
 Berny optimization.
 Initialization pass.
                           ----------------------------
                           !    Initial Parameters    !
                           ! (Angstroms and Degrees)  !
 --------------------------                            --------------------------
 ! Name  Definition              Value          Derivative Info.                !
 --------------------------------------------------------------------------------
 ! R1    R(1,2)                  1.2204         estimate D2E/DX2                !
 ! R2    R(1,3)                  1.3531         estimate D2E/DX2                !
 ! R3    R(1,4)                  1.5101         estimate D2E/DX2                !
 ! R4    R(3,5)                  0.9654         estimate D2E/DX2                !
 ! R5    R(4,6)                  1.1102         estimate D2E/DX2                !
 ! R6    R(4,7)                  1.7862         estimate D2E/DX2                !
 ! R7    R(4,8)                  1.1102         estimate D2E/DX2                !
 ! A1    A(2,1,3)              118.8832         estimate D2E/DX2                !
 ! A2    A(2,1,4)              118.7264         estimate D2E/DX2                !
 ! A3    A(3,1,4)              122.3903         estimate D2E/DX2                !
 ! A4    A(1,3,5)              123.2158         estimate D2E/DX2                !
 ! A5    A(1,4,6)              108.9286         estimate D2E/DX2                !
 ! A6    A(1,4,7)              114.5464         estimate D2E/DX2                !
 ! A7    A(1,4,8)              108.928          estimate D2E/DX2                !
 ! A8    A(6,4,7)              107.9099         estimate D2E/DX2                !
 ! A9    A(6,4,8)              108.4648         estimate D2E/DX2                !
 ! A10   A(7,4,8)              107.91           estimate D2E/DX2                !
 ! D1    D(2,1,3,5)           -179.9999         estimate D2E/DX2                !
 ! D2    D(4,1,3,5)             -0.0005         estimate D2E/DX2                !
 ! D3    D(2,1,4,6)            -59.0678         estimate D2E/DX2                !
 ! D4    D(2,1,4,7)           -179.9999         estimate D2E/DX2                !
 ! D5    D(2,1,4,8)             59.0683         estimate D2E/DX2                !
 ! D6    D(3,1,4,6)            120.9328         estimate D2E/DX2                !
 ! D7    D(3,1,4,7)              0.0007         estimate D2E/DX2                !
 ! D8    D(3,1,4,8)           -120.9311         estimate D2E/DX2                !
 --------------------------------------------------------------------------------
 Trust Radius=3.00D-01 FncErr=1.00D-07 GrdErr=1.00D-06 EigMax=2.50D+02 EigMin=1.00D-04
 Number of steps in this run=     35 maximum allowed number of steps=    100.
 GradGradGradGradGradGradGradGradGradGradGradGradGradGradGradGradGradGrad

 Leave Link  103 at Mon Feb 25 12:04:58 2019, MaxMem=   104857600 cpu:               0.0 elap:               0.0
 (Enter /opt/g16/l202.exe)
                          Input orientation:                          
 ---------------------------------------------------------------------
 Center     Atomic      Atomic             Coordinates (Angstroms)
 Number     Number       Type             X           Y           Z
 ---------------------------------------------------------------------
      1          6           0       -0.390730    1.636150   -0.086360
      2          8           0        0.829510    1.633070   -0.103230
      3          8           0       -1.057300    0.747250   -0.858650
      4          6           0       -1.101880    2.633380    0.796970
      5          1           0       -2.020660    0.694860   -0.893440
      6          1           0       -0.787430    2.470900    1.849250
      7         17           0       -2.884600    2.540010    0.735740
      8          1           0       -0.803150    3.659160    0.495100
 ---------------------------------------------------------------------
                    Distance matrix (angstroms):
                    1          2          3          4          5
     1  C    0.000000
     2  O    1.220360   0.000000
     3  O    1.353104   2.217068   0.000000
     4  C    1.510124   2.353985   2.510090   0.000000
     5  H    2.047945   3.102924   0.965411   2.731209   0.000000
     6  H    2.144939   2.669950   3.221261   1.110212   3.492495
     7  Cl   2.777085   3.914208   3.015807   1.786213   2.608678
     8  H    2.144937   2.669947   3.221250   1.110221   3.492485
                    6          7          8
     6  H    0.000000
     7  Cl   2.375458   0.000000
     8  H    1.801647   2.375466   0.000000
 Stoichiometry    C2H3ClO2
 Framework group  C1[X(C2H3ClO2)]
 Deg. of freedom    18
 Full point group                 C1      NOp   1
 Largest Abelian subgroup         C1      NOp   1
 Largest concise Abelian subgroup C1      NOp   1
                         Standard orientation:                         
 ---------------------------------------------------------------------
 Center     Atomic      Atomic             Coordinates (Angstroms)
 Number     Number       Type             X           Y           Z
 ---------------------------------------------------------------------
      1          6           0        1.034634   -0.045200   -0.000003
      2          8           0        2.113316   -0.615923   -0.000003
      3          8           0        1.011014    1.307698    0.000002
      4          6           0       -0.226226   -0.876287    0.000003
      5          1           0        0.194230    1.822365    0.000004
      6          1           0       -0.229841   -1.525205   -0.900810
      7         17           0       -1.739979    0.071927   -0.000002
      8          1           0       -0.229831   -1.525190    0.900837
 ---------------------------------------------------------------------
 Rotational constants (GHZ):           9.6288649           2.4194743           1.9581186
 Leave Link  202 at Mon Feb 25 12:04:59 2019, MaxMem=   104857600 cpu:               0.0 elap:               0.0
 (Enter /opt/g16/l301.exe)
 Standard basis: 6-31+G(d,p) (6D, 7F)
 Ernie: Thresh=  0.10000D-02 Tol=  0.10000D-05 Strict=F.
 There are   114 symmetry adapted cartesian basis functions of A   symmetry.
 There are   114 symmetry adapted basis functions of A   symmetry.
   114 basis functions,   205 primitive gaussians,   114 cartesian basis functions
    24 alpha electrons       24 beta electrons
       nuclear repulsion energy       214.8524963385 Hartrees.
 IExCor=  402 DFT=T Ex+Corr=B3LYP ExCW=0 ScaHFX=  0.200000
 ScaDFX=  0.800000  0.720000  1.000000  0.810000 ScalE2=  1.000000  1.000000
 IRadAn=      5 IRanWt=     -1 IRanGd=            0 ICorTp=0 IEmpDi=  4
 NAtoms=    8 NActive=    8 NUniq=    8 SFac= 1.00D+00 NAtFMM=   60 NAOKFM=F Big=F
 Integral buffers will be    131072 words long.
 Raffenetti 2 integral format.
 Two-electron integral symmetry is turned on.
 Leave Link  301 at Mon Feb 25 12:04:59 2019, MaxMem=   104857600 cpu:               0.1 elap:               0.1
 (Enter /opt/g16/l302.exe)
 NPDir=0 NMtPBC=     1 NCelOv=     1 NCel=       1 NClECP=     1 NCelD=      1
         NCelK=      1 NCelE2=     1 NClLst=     1 CellRange=     0.0.
 One-electron integrals computed using PRISM.
 One-electron integral symmetry used in STVInt
 NBasis=   114 RedAO= T EigKep=  1.27D-04  NBF=   114
 NBsUse=   114 1.00D-06 EigRej= -1.00D+00 NBFU=   114
 Precomputing XC quadrature grid using
 IXCGrd= 4 IRadAn=           5 IRanWt=          -1 IRanGd=           0 AccXCQ= 0.00D+00.
 Generated NRdTot=       0 NPtTot=           0 NUsed=           0 NTot=          32
 NSgBfM=   114   114   114   114   114 MxSgAt=     8 MxSgA2=     8.
 Leave Link  302 at Mon Feb 25 12:04:59 2019, MaxMem=   104857600 cpu:               0.3 elap:               0.3
 (Enter /opt/g16/l303.exe)
 DipDrv:  MaxL=1.
 Leave Link  303 at Mon Feb 25 12:04:59 2019, MaxMem=   104857600 cpu:               0.0 elap:               0.1
 (Enter /opt/g16/l401.exe)
 ExpMin= 4.38D-02 ExpMax= 2.52D+04 ExpMxC= 3.78D+03 IAcc=3 IRadAn=         5 AccDes= 0.00D+00
 Harris functional with IExCor=  402 and IRadAn=       5 diagonalized for initial guess.
 HarFok:  IExCor=  402 AccDes= 0.00D+00 IRadAn=         5 IDoV= 1 UseB2=F ITyADJ=14
 ICtDFT=  3500011 ScaDFX=  1.000000  1.000000  1.000000  1.000000
 FoFCou: FMM=F IPFlag=           0 FMFlag=      100000 FMFlg1=           0
         NFxFlg=           0 DoJE=T BraDBF=F KetDBF=T FulRan=T
         wScrn=  0.000000 ICntrl=       500 IOpCl=  0 I1Cent=   200000004 NGrid=           0
         NMat0=    1 NMatS0=      1 NMatT0=    0 NMatD0=    1 NMtDS0=    0 NMtDT0=    0
 Petite list used in FoFCou.
 Harris En= -688.622402825198    
 JPrj=0 DoOrth=F DoCkMO=F.
 Leave Link  401 at Mon Feb 25 12:05:03 2019, MaxMem=   104857600 cpu:               3.1 elap:               3.2
 (Enter /opt/g16/l502.exe)
 Keep R1 ints in memory in canonical form, NReq=22427226.
 FoFCou: FMM=F IPFlag=           0 FMFlag=           0 FMFlg1=           0
         NFxFlg=           0 DoJE=F BraDBF=F KetDBF=F FulRan=T
         wScrn=  0.000000 ICntrl=       600 IOpCl=  0 I1Cent=           0 NGrid=           0
         NMat0=    1 NMatS0=   6555 NMatT0=    0 NMatD0=    1 NMtDS0=    0 NMtDT0=    0
 Symmetry not used in FoFCou.
 Two-electron integral symmetry not used.
 Closed shell SCF:
 Using DIIS extrapolation, IDIIS=  1040.
 NGot=   104857600 LenX=    83342387 LenY=    83328950
 Requested convergence on RMS density matrix=1.00D-08 within 128 cycles.
 Requested convergence on MAX density matrix=1.00D-06.
 Requested convergence on             energy=1.00D-06.
 No special actions if energy rises.

 Cycle   1  Pass 1  IDiag  1:
 E= -688.548468809997    
 DIIS: error= 3.54D-02 at cycle   1 NSaved=   1.
 NSaved= 1 IEnMin= 1 EnMin= -688.548468809997     IErMin= 1 ErrMin= 3.54D-02
 ErrMax= 3.54D-02  0.00D+00 EMaxC= 1.00D-01 BMatC= 1.73D-01 BMatP= 1.73D-01
 IDIUse=3 WtCom= 6.46D-01 WtEn= 3.54D-01
 Coeff-Com:  0.100D+01
 Coeff-En:   0.100D+01
 Coeff:      0.100D+01
 Gap=     0.396 Goal=   None    Shift=    0.000
 GapD=    0.396 DampG=1.000 DampE=0.500 DampFc=0.5000 IDamp=-1.
 Damping current iteration by 5.00D-01
 RMSDP=1.24D-02 MaxDP=2.29D-01              OVMax= 3.25D-01

 Cycle   2  Pass 1  IDiag  1:
 E= -688.536028869022     Delta-E=        0.012439940975 Rises=F Damp=T
 DIIS: error= 1.39D-02 at cycle   2 NSaved=   2.
 NSaved= 2 IEnMin= 1 EnMin= -688.548468809997     IErMin= 2 ErrMin= 1.39D-02
 ErrMax= 1.39D-02  0.00D+00 EMaxC= 1.00D-01 BMatC= 5.55D-02 BMatP= 1.73D-01
 IDIUse=3 WtCom= 8.61D-01 WtEn= 1.39D-01
 Coeff-Com:  0.334D+00 0.666D+00
 Coeff-En:   0.532D+00 0.468D+00
 Coeff:      0.361D+00 0.639D+00
 Gap=     0.284 Goal=   None    Shift=    0.000
 RMSDP=3.92D-03 MaxDP=6.22D-02 DE= 1.24D-02 OVMax= 2.33D-01

 Cycle   3  Pass 1  IDiag  1:
 E= -688.658417946783     Delta-E=       -0.122389077761 Rises=F Damp=F
 DIIS: error= 1.33D-02 at cycle   3 NSaved=   3.
 NSaved= 3 IEnMin= 3 EnMin= -688.658417946783     IErMin= 3 ErrMin= 1.33D-02
 ErrMax= 1.33D-02  0.00D+00 EMaxC= 1.00D-01 BMatC= 2.80D-02 BMatP= 5.55D-02
 IDIUse=3 WtCom= 8.67D-01 WtEn= 1.33D-01
 Coeff-Com:  0.156D+00 0.414D+00 0.430D+00
 Coeff-En:   0.000D+00 0.000D+00 0.100D+01
 Coeff:      0.136D+00 0.359D+00 0.506D+00
 Gap=     0.266 Goal=   None    Shift=    0.000
 RMSDP=1.92D-03 MaxDP=4.31D-02 DE=-1.22D-01 OVMax= 7.20D-02

 Cycle   4  Pass 1  IDiag  1:
 E= -688.676616617243     Delta-E=       -0.018198670460 Rises=F Damp=F
 DIIS: error= 6.96D-03 at cycle   4 NSaved=   4.
 NSaved= 4 IEnMin= 4 EnMin= -688.676616617243     IErMin= 4 ErrMin= 6.96D-03
 ErrMax= 6.96D-03  0.00D+00 EMaxC= 1.00D-01 BMatC= 5.96D-03 BMatP= 2.80D-02
 IDIUse=3 WtCom= 9.30D-01 WtEn= 6.96D-02
 Coeff-Com:  0.701D-02 0.654D-01 0.321D+00 0.607D+00
 Coeff-En:   0.000D+00 0.000D+00 0.204D+00 0.796D+00
 Coeff:      0.652D-02 0.609D-01 0.313D+00 0.620D+00
 Gap=     0.270 Goal=   None    Shift=    0.000
 RMSDP=6.85D-04 MaxDP=1.77D-02 DE=-1.82D-02 OVMax= 2.11D-02

 Cycle   5  Pass 1  IDiag  1:
 E= -688.680894116737     Delta-E=       -0.004277499493 Rises=F Damp=F
 DIIS: error= 1.08D-03 at cycle   5 NSaved=   5.
 NSaved= 5 IEnMin= 5 EnMin= -688.680894116737     IErMin= 5 ErrMin= 1.08D-03
 ErrMax= 1.08D-03  0.00D+00 EMaxC= 1.00D-01 BMatC= 2.42D-04 BMatP= 5.96D-03
 IDIUse=3 WtCom= 9.89D-01 WtEn= 1.08D-02
 Coeff-Com: -0.295D-02 0.138D-01 0.142D+00 0.333D+00 0.515D+00
 Coeff-En:   0.000D+00 0.000D+00 0.000D+00 0.000D+00 0.100D+01
 Coeff:     -0.292D-02 0.137D-01 0.140D+00 0.329D+00 0.520D+00
 Gap=     0.270 Goal=   None    Shift=    0.000
 RMSDP=1.76D-04 MaxDP=3.19D-03 DE=-4.28D-03 OVMax= 3.65D-03

 Cycle   6  Pass 1  IDiag  1:
 E= -688.681084616111     Delta-E=       -0.000190499374 Rises=F Damp=F
 DIIS: error= 3.17D-04 at cycle   6 NSaved=   6.
 NSaved= 6 IEnMin= 6 EnMin= -688.681084616111     IErMin= 6 ErrMin= 3.17D-04
 ErrMax= 3.17D-04  0.00D+00 EMaxC= 1.00D-01 BMatC= 1.90D-05 BMatP= 2.42D-04
 IDIUse=3 WtCom= 9.97D-01 WtEn= 3.17D-03
 Coeff-Com: -0.163D-02 0.438D-03 0.416D-01 0.106D+00 0.277D+00 0.576D+00
 Coeff-En:   0.000D+00 0.000D+00 0.000D+00 0.000D+00 0.152D-01 0.985D+00
 Coeff:     -0.163D-02 0.437D-03 0.414D-01 0.106D+00 0.276D+00 0.578D+00
 Gap=     0.270 Goal=   None    Shift=    0.000
 RMSDP=7.21D-05 MaxDP=1.83D-03 DE=-1.90D-04 OVMax= 1.28D-03

 Cycle   7  Pass 1  IDiag  1:
 E= -688.681102360481     Delta-E=       -0.000017744371 Rises=F Damp=F
 DIIS: error= 4.17D-05 at cycle   7 NSaved=   7.
 NSaved= 7 IEnMin= 7 EnMin= -688.681102360481     IErMin= 7 ErrMin= 4.17D-05
 ErrMax= 4.17D-05  0.00D+00 EMaxC= 1.00D-01 BMatC= 4.28D-07 BMatP= 1.90D-05
 IDIUse=1 WtCom= 1.00D+00 WtEn= 0.00D+00
 Coeff-Com: -0.482D-04-0.123D-02 0.368D-02 0.784D-02 0.457D-01 0.150D+00
 Coeff-Com:  0.794D+00
 Coeff:     -0.482D-04-0.123D-02 0.368D-02 0.784D-02 0.457D-01 0.150D+00
 Coeff:      0.794D+00
 Gap=     0.270 Goal=   None    Shift=    0.000
 RMSDP=1.24D-05 MaxDP=2.30D-04 DE=-1.77D-05 OVMax= 1.84D-04

 Cycle   8  Pass 1  IDiag  1:
 E= -688.681102773301     Delta-E=       -0.000000412820 Rises=F Damp=F
 DIIS: error= 7.75D-06 at cycle   8 NSaved=   8.
 NSaved= 8 IEnMin= 8 EnMin= -688.681102773301     IErMin= 8 ErrMin= 7.75D-06
 ErrMax= 7.75D-06  0.00D+00 EMaxC= 1.00D-01 BMatC= 1.68D-08 BMatP= 4.28D-07
 IDIUse=1 WtCom= 1.00D+00 WtEn= 0.00D+00
 Coeff-Com:  0.992D-04-0.351D-03-0.192D-04-0.100D-02 0.360D-02 0.159D-01
 Coeff-Com:  0.202D+00 0.780D+00
 Coeff:      0.992D-04-0.351D-03-0.192D-04-0.100D-02 0.360D-02 0.159D-01
 Coeff:      0.202D+00 0.780D+00
 Gap=     0.270 Goal=   None    Shift=    0.000
 RMSDP=2.42D-06 MaxDP=4.35D-05 DE=-4.13D-07 OVMax= 7.40D-05

 Cycle   9  Pass 1  IDiag  1:
 E= -688.681102789604     Delta-E=       -0.000000016302 Rises=F Damp=F
 DIIS: error= 3.64D-06 at cycle   9 NSaved=   9.
 NSaved= 9 IEnMin= 9 EnMin= -688.681102789604     IErMin= 9 ErrMin= 3.64D-06
 ErrMax= 3.64D-06  0.00D+00 EMaxC= 1.00D-01 BMatC= 3.17D-09 BMatP= 1.68D-08
 IDIUse=1 WtCom= 1.00D+00 WtEn= 0.00D+00
 Coeff-Com:  0.422D-04-0.807D-04-0.223D-03-0.888D-03-0.196D-02-0.588D-02
 Coeff-Com:  0.177D-01 0.372D+00 0.619D+00
 Coeff:      0.422D-04-0.807D-04-0.223D-03-0.888D-03-0.196D-02-0.588D-02
 Coeff:      0.177D-01 0.372D+00 0.619D+00
 Gap=     0.270 Goal=   None    Shift=    0.000
 RMSDP=6.71D-07 MaxDP=1.26D-05 DE=-1.63D-08 OVMax= 1.20D-05

 Cycle  10  Pass 1  IDiag  1:
 E= -688.681102792649     Delta-E=       -0.000000003045 Rises=F Damp=F
 DIIS: error= 4.09D-07 at cycle  10 NSaved=  10.
 NSaved=10 IEnMin=10 EnMin= -688.681102792649     IErMin=10 ErrMin= 4.09D-07
 ErrMax= 4.09D-07  0.00D+00 EMaxC= 1.00D-01 BMatC= 5.03D-11 BMatP= 3.17D-09
 IDIUse=1 WtCom= 1.00D+00 WtEn= 0.00D+00
 Coeff-Com:  0.466D-05 0.613D-06-0.391D-04-0.167D-03-0.719D-03-0.225D-02
 Coeff-Com: -0.893D-02 0.474D-01 0.126D+00 0.838D+00
 Coeff:      0.466D-05 0.613D-06-0.391D-04-0.167D-03-0.719D-03-0.225D-02
 Coeff:     -0.893D-02 0.474D-01 0.126D+00 0.838D+00
 Gap=     0.270 Goal=   None    Shift=    0.000
 RMSDP=1.82D-07 MaxDP=5.16D-06 DE=-3.05D-09 OVMax= 2.65D-06

 Cycle  11  Pass 1  IDiag  1:
 E= -688.681102792701     Delta-E=       -0.000000000052 Rises=F Damp=F
 DIIS: error= 1.46D-07 at cycle  11 NSaved=  11.
 NSaved=11 IEnMin=11 EnMin= -688.681102792701     IErMin=11 ErrMin= 1.46D-07
 ErrMax= 1.46D-07  0.00D+00 EMaxC= 1.00D-01 BMatC= 3.97D-12 BMatP= 5.03D-11
 IDIUse=1 WtCom= 1.00D+00 WtEn= 0.00D+00
 Coeff-Com:  0.472D-06 0.267D-05-0.435D-06-0.217D-04-0.151D-03-0.487D-03
 Coeff-Com: -0.340D-02 0.170D-02 0.145D-01 0.252D+00 0.736D+00
 Coeff:      0.472D-06 0.267D-05-0.435D-06-0.217D-04-0.151D-03-0.487D-03
 Coeff:     -0.340D-02 0.170D-02 0.145D-01 0.252D+00 0.736D+00
 Gap=     0.270 Goal=   None    Shift=    0.000
 RMSDP=2.84D-08 MaxDP=7.01D-07 DE=-5.24D-11 OVMax= 5.44D-07

 Cycle  12  Pass 1  IDiag  1:
 E= -688.681102792705     Delta-E=       -0.000000000004 Rises=F Damp=F
 DIIS: error= 4.09D-08 at cycle  12 NSaved=  12.
 NSaved=12 IEnMin=12 EnMin= -688.681102792705     IErMin=12 ErrMin= 4.09D-08
 ErrMax= 4.09D-08  0.00D+00 EMaxC= 1.00D-01 BMatC= 3.05D-13 BMatP= 3.97D-12
 IDIUse=1 WtCom= 1.00D+00 WtEn= 0.00D+00
 Coeff-Com: -0.177D-06 0.661D-06 0.334D-05 0.429D-05-0.310D-06-0.160D-04
 Coeff-Com: -0.583D-03-0.311D-02-0.458D-02 0.279D-01 0.260D+00 0.720D+00
 Coeff:     -0.177D-06 0.661D-06 0.334D-05 0.429D-05-0.310D-06-0.160D-04
 Coeff:     -0.583D-03-0.311D-02-0.458D-02 0.279D-01 0.260D+00 0.720D+00
 Gap=     0.270 Goal=   None    Shift=    0.000
 RMSDP=7.82D-09 MaxDP=2.64D-07 DE=-4.09D-12 OVMax= 1.46D-07

 SCF Done:  E(RB3LYP) =  -688.681102793     A.U. after   12 cycles
            NFock= 12  Conv=0.78D-08     -V/T= 2.0052
 KE= 6.851049846163D+02 PE=-2.058097366433D+03 EE= 4.694587826856D+02
 Leave Link  502 at Mon Feb 25 12:05:55 2019, MaxMem=   104857600 cpu:              51.8 elap:              52.3
 (Enter /opt/g16/l601.exe)
 Copying SCF densities to generalized density rwf, IOpCl= 0 IROHF=0.

 **********************************************************************

            Population analysis using the SCF Density.

 **********************************************************************

 Orbital symmetries:
       Occupied  (A) (A) (A) (A) (A) (A) (A) (A) (A) (A) (A) (A)
                 (A) (A) (A) (A) (A) (A) (A) (A) (A) (A) (A) (A)
       Virtual   (A) (A) (A) (A) (A) (A) (A) (A) (A) (A) (A) (A)
                 (A) (A) (A) (A) (A) (A) (A) (A) (A) (A) (A) (A)
                 (A) (A) (A) (A) (A) (A) (A) (A) (A) (A) (A) (A)
                 (A) (A) (A) (A) (A) (A) (A) (A) (A) (A) (A) (A)
                 (A) (A) (A) (A) (A) (A) (A) (A) (A) (A) (A) (A)
                 (A) (A) (A) (A) (A) (A) (A) (A) (A) (A) (A) (A)
                 (A) (A) (A) (A) (A) (A) (A) (A) (A) (A) (A) (A)
                 (A) (A) (A) (A) (A) (A)
 The electronic state is 1-A.
 Alpha  occ. eigenvalues -- -101.57633 -19.22656 -19.16823 -10.36019 -10.29310
 Alpha  occ. eigenvalues --   -9.49257  -7.25655  -7.24691  -7.24638  -1.12594
 Alpha  occ. eigenvalues --   -1.04319  -0.89708  -0.74522  -0.66327  -0.55435
 Alpha  occ. eigenvalues --   -0.51457  -0.48531  -0.44647  -0.43868  -0.39950
 Alpha  occ. eigenvalues --   -0.35188  -0.34871  -0.32819  -0.30188
 Alpha virt. eigenvalues --   -0.03169  -0.01620  -0.01528   0.02193   0.04033
 Alpha virt. eigenvalues --    0.05032   0.06234   0.07585   0.08034   0.08037
 Alpha virt. eigenvalues --    0.09166   0.11070   0.11964   0.14442   0.17275
 Alpha virt. eigenvalues --    0.18848   0.19380   0.20878   0.21198   0.25805
 Alpha virt. eigenvalues --    0.26324   0.28220   0.28424   0.30637   0.31543
 Alpha virt. eigenvalues --    0.35135   0.36157   0.40995   0.55350   0.57408
 Alpha virt. eigenvalues --    0.58855   0.60604   0.61622   0.66005   0.66155
 Alpha virt. eigenvalues --    0.68351   0.75141   0.78615   0.83340   0.86255
 Alpha virt. eigenvalues --    0.89661   0.95729   0.97373   0.98519   1.00468
 Alpha virt. eigenvalues --    1.05671   1.08270   1.13535   1.16801   1.24313
 Alpha virt. eigenvalues --    1.26269   1.31008   1.31350   1.33630   1.42312
 Alpha virt. eigenvalues --    1.46859   1.50549   1.56084   1.59012   1.70072
 Alpha virt. eigenvalues --    1.74162   1.76884   1.79805   1.84495   1.93306
 Alpha virt. eigenvalues --    2.00269   2.03461   2.11625   2.15813   2.23465
 Alpha virt. eigenvalues --    2.26310   2.33823   2.48482   2.49628   2.52858
 Alpha virt. eigenvalues --    2.59126   2.66842   2.70692   2.73494   2.96629
 Alpha virt. eigenvalues --    3.00886   3.13272   3.23702   3.35655   3.51887
 Alpha virt. eigenvalues --    4.18929   4.20796   4.33662   4.37329   4.55783
          Condensed to atoms (all electrons):
               1          2          3          4          5          6
     1  C    5.024099   0.472393   0.137745  -0.032036   0.054571  -0.004175
     2  O    0.472393   8.196496  -0.108562  -0.164834   0.009608  -0.006892
     3  O    0.137745  -0.108562   8.309600  -0.121753   0.200847   0.002149
     4  C   -0.032036  -0.164834  -0.121753   5.923996  -0.052039   0.342815
     5  H    0.054571   0.009608   0.200847  -0.052039   0.391443   0.000385
     6  H   -0.004175  -0.006892   0.002149   0.342815   0.000385   0.491879
     7  Cl  -0.001959   0.017131   0.012595   0.047771   0.028427  -0.034803
     8  H   -0.004174  -0.006892   0.002149   0.342813   0.000385  -0.022552
               7          8
     1  C   -0.001959  -0.004174
     2  O    0.017131  -0.006892
     3  O    0.012595   0.002149
     4  C    0.047771   0.342813
     5  H    0.028427   0.000385
     6  H   -0.034803  -0.022552
     7  Cl  17.017984  -0.034803
     8  H   -0.034803   0.491881
 Mulliken charges:
               1
     1  C    0.353536
     2  O   -0.408448
     3  O   -0.434770
     4  C   -0.286733
     5  H    0.366372
     6  H    0.231193
     7  Cl  -0.052343
     8  H    0.231192
 Sum of Mulliken charges =  -0.00000
 Mulliken charges with hydrogens summed into heavy atoms:
               1
     1  C    0.353536
     2  O   -0.408448
     3  O   -0.068397
     4  C    0.175652
     7  Cl  -0.052343
 Electronic spatial extent (au):  <R**2>=            561.4624
 Charge=             -0.0000 electrons
 Dipole moment (field-independent basis, Debye):
    X=             -2.8557    Y=              0.0223    Z=              0.0000  Tot=              2.8558
 Quadrupole moment (field-independent basis, Debye-Ang):
   XX=            -47.7135   YY=            -32.3550   ZZ=            -35.0108
   XY=              0.2961   XZ=              0.0000   YZ=             -0.0000
 Traceless Quadrupole moment (field-independent basis, Debye-Ang):
   XX=             -9.3538   YY=              6.0048   ZZ=              3.3490
   XY=              0.2961   XZ=              0.0000   YZ=             -0.0000
 Octapole moment (field-independent basis, Debye-Ang**2):
  XXX=            -16.5052  YYY=              7.6611  ZZZ=              0.0000  XYY=             -6.1511
  XXY=              5.3027  XXZ=             -0.0000  XZZ=              1.7984  YZZ=             -1.4545
  YYZ=              0.0000  XYZ=             -0.0000
 Hexadecapole moment (field-independent basis, Debye-Ang**3):
 XXXX=           -533.1775 YYYY=           -140.2318 ZZZZ=            -42.1264 XXXY=              1.2097
 XXXZ=              0.0001 YYYX=             -1.7296 YYYZ=              0.0001 ZZZX=             -0.0000
 ZZZY=             -0.0001 XXYY=           -118.3935 XXZZ=            -90.9308 YYZZ=            -31.3702
 XXYZ=             -0.0000 YYXZ=              0.0000 ZZXY=              0.4048
 N-N= 2.148524963385D+02 E-N=-2.058097375848D+03  KE= 6.851049846163D+02
 No NMR shielding tensors so no spin-rotation constants.
 Leave Link  601 at Mon Feb 25 12:05:56 2019, MaxMem=   104857600 cpu:               0.2 elap:               0.2
 (Enter /opt/g16/l607.exe)
 ******************************Gaussian NBO Version 3.1******************************
             N A T U R A L   A T O M I C   O R B I T A L   A N D
          N A T U R A L   B O N D   O R B I T A L   A N A L Y S I S
 ******************************Gaussian NBO Version 3.1******************************
       /RESON  / : Allow strongly delocalized NBO set

 Analyzing the SCF density

 Job title: acidocloroacetico                                               

 Storage needed:     39606 in NPA ( 104857200 available)
 GSVD:  LWork=        6506 too small for GESVD, short by        5979 words or        5979 for optimal perf.


 NATURAL POPULATIONS:  Natural atomic orbital occupancies 
                                                          
   NAO  Atom  No  lang   Type(AO)    Occupancy      Energy
 ----------------------------------------------------------
     1    C    1  S      Cor( 1S)     1.99932     -10.24406
     2    C    1  S      Val( 2S)     0.80130      -0.21531
     3    C    1  S      Ryd( 4S)     0.00472       1.37825
     4    C    1  S      Ryd( 3S)     0.00048       0.32949
     5    C    1  S      Ryd( 5S)     0.00033       3.57591
     6    C    1  px     Val( 2p)     0.85856      -0.06090
     7    C    1  px     Ryd( 4p)     0.01507       0.72001
     8    C    1  px     Ryd( 3p)     0.00094       0.30498
     9    C    1  py     Val( 2p)     0.74647      -0.05798
    10    C    1  py     Ryd( 4p)     0.00822       0.68024
    11    C    1  py     Ryd( 3p)     0.00061       0.31758
    12    C    1  pz     Val( 2p)     0.76060      -0.15903
    13    C    1  pz     Ryd( 4p)     0.00233       0.56424
    14    C    1  pz     Ryd( 3p)     0.00044       0.20996
    15    C    1  dxy    Ryd( 3d)     0.00244       2.57090
    16    C    1  dxz    Ryd( 3d)     0.00112       2.12197
    17    C    1  dyz    Ryd( 3d)     0.00204       1.98992
    18    C    1  dx2y2  Ryd( 3d)     0.00370       2.52042
    19    C    1  dz2    Ryd( 3d)     0.00040       2.29125

    20    O    2  S      Cor( 1S)     1.99978     -18.89932
    21    O    2  S      Val( 2S)     1.71310      -0.92583
    22    O    2  S      Ryd( 3S)     0.00269       0.87978
    23    O    2  S      Ryd( 4S)     0.00020       2.21914
    24    O    2  S      Ryd( 5S)     0.00010       3.05643
    25    O    2  px     Val( 2p)     1.61804      -0.31100
    26    O    2  px     Ryd( 3p)     0.00117       0.83586
    27    O    2  px     Ryd( 4p)     0.00006       0.98138
    28    O    2  py     Val( 2p)     1.77135      -0.28761
    29    O    2  py     Ryd( 3p)     0.00267       0.73208
    30    O    2  py     Ryd( 4p)     0.00011       0.96434
    31    O    2  pz     Val( 2p)     1.44134      -0.26923
    32    O    2  pz     Ryd( 3p)     0.00077       0.67086
    33    O    2  pz     Ryd( 4p)     0.00004       0.81721
    34    O    2  dxy    Ryd( 3d)     0.00573       2.17484
    35    O    2  dxz    Ryd( 3d)     0.00399       1.82981
    36    O    2  dyz    Ryd( 3d)     0.00089       1.80080
    37    O    2  dx2y2  Ryd( 3d)     0.00512       2.07139
    38    O    2  dz2    Ryd( 3d)     0.00173       1.98023

    39    O    3  S      Cor( 1S)     1.99974     -19.03741
    40    O    3  S      Val( 2S)     1.66158      -0.93669
    41    O    3  S      Ryd( 3S)     0.00281       0.90509
    42    O    3  S      Ryd( 4S)     0.00036       1.16041
    43    O    3  S      Ryd( 5S)     0.00004       3.99824
    44    O    3  px     Val( 2p)     1.73224      -0.36292
    45    O    3  px     Ryd( 3p)     0.00329       0.74043
    46    O    3  px     Ryd( 4p)     0.00023       1.07212
    47    O    3  py     Val( 2p)     1.50326      -0.36476
    48    O    3  py     Ryd( 3p)     0.00303       0.62275
    49    O    3  py     Ryd( 4p)     0.00031       1.00207
    50    O    3  pz     Val( 2p)     1.81079      -0.35834
    51    O    3  pz     Ryd( 3p)     0.00232       0.42279
    52    O    3  pz     Ryd( 4p)     0.00012       0.95099
    53    O    3  dxy    Ryd( 3d)     0.00160       2.45688
    54    O    3  dxz    Ryd( 3d)     0.00131       1.84234
    55    O    3  dyz    Ryd( 3d)     0.00091       1.96789
    56    O    3  dx2y2  Ryd( 3d)     0.00137       2.59255
    57    O    3  dz2    Ryd( 3d)     0.00078       2.25188

    58    C    4  S      Cor( 1S)     1.99917     -10.18014
    59    C    4  S      Val( 2S)     1.16282      -0.39547
    60    C    4  S      Ryd( 4S)     0.00089       1.04999
    61    C    4  S      Ryd( 3S)     0.00045       0.85578
    62    C    4  S      Ryd( 5S)     0.00003       3.98772
    63    C    4  px     Val( 2p)     0.93381      -0.19847
    64    C    4  px     Ryd( 4p)     0.00454       0.47332
    65    C    4  px     Ryd( 3p)     0.00059       0.36934
    66    C    4  py     Val( 2p)     1.15046      -0.19659
    67    C    4  py     Ryd( 4p)     0.00224       0.48371
    68    C    4  py     Ryd( 3p)     0.00052       0.38558
    69    C    4  pz     Val( 2p)     1.31420      -0.18865
    70    C    4  pz     Ryd( 4p)     0.00145       0.58635
    71    C    4  pz     Ryd( 3p)     0.00016       0.38615
    72    C    4  dxy    Ryd( 3d)     0.00171       2.13218
    73    C    4  dxz    Ryd( 3d)     0.00067       1.84453
    74    C    4  dyz    Ryd( 3d)     0.00095       2.42938
    75    C    4  dx2y2  Ryd( 3d)     0.00086       2.12976
    76    C    4  dz2    Ryd( 3d)     0.00096       2.19058

    77    H    5  S      Val( 1S)     0.45673       0.11616
    78    H    5  S      Ryd( 2S)     0.00222       0.59932
    79    H    5  px     Ryd( 2p)     0.00107       2.90580
    80    H    5  py     Ryd( 2p)     0.00078       2.56361
    81    H    5  pz     Ryd( 2p)     0.00071       2.23993

    82    H    6  S      Val( 1S)     0.69764       0.02615
    83    H    6  S      Ryd( 2S)     0.00088       0.58658
    84    H    6  px     Ryd( 2p)     0.00010       2.25326
    85    H    6  py     Ryd( 2p)     0.00020       2.52529
    86    H    6  pz     Ryd( 2p)     0.00033       2.72316

    87   Cl    7  S      Cor( 1S)     2.00000    -100.29682
    88   Cl    7  S      Cor( 2S)     1.99982     -10.48921
    89   Cl    7  S      Val( 3S)     1.85946      -1.01114
    90   Cl    7  S      Ryd( 5S)     0.00253       0.66561
    91   Cl    7  S      Ryd( 4S)     0.00044       0.44946
    92   Cl    7  S      Ryd( 6S)     0.00000       4.25682
    93   Cl    7  px     Cor( 2p)     1.99994      -7.24753
    94   Cl    7  px     Val( 3p)     1.44732      -0.31611
    95   Cl    7  px     Ryd( 5p)     0.00270       0.43055
    96   Cl    7  px     Ryd( 4p)     0.00019       0.28248
    97   Cl    7  py     Cor( 2p)     1.99997      -7.24425
    98   Cl    7  py     Val( 3p)     1.75269      -0.33551
    99   Cl    7  py     Ryd( 5p)     0.00196       0.43755
   100   Cl    7  py     Ryd( 4p)     0.00007       0.29835
   101   Cl    7  pz     Cor( 2p)     1.99999      -7.24150
   102   Cl    7  pz     Val( 3p)     1.98096      -0.34868
   103   Cl    7  pz     Ryd( 5p)     0.00158       0.42130
   104   Cl    7  pz     Ryd( 4p)     0.00019       0.28698
   105   Cl    7  dxy    Ryd( 3d)     0.00423       1.03921
   106   Cl    7  dxz    Ryd( 3d)     0.00113       0.92053
   107   Cl    7  dyz    Ryd( 3d)     0.00048       0.86944
   108   Cl    7  dx2y2  Ryd( 3d)     0.00229       0.96570
   109   Cl    7  dz2    Ryd( 3d)     0.00171       0.91710

   110    H    8  S      Val( 1S)     0.69764       0.02614
   111    H    8  S      Ryd( 2S)     0.00088       0.58658
   112    H    8  px     Ryd( 2p)     0.00010       2.25326
   113    H    8  py     Ryd( 2p)     0.00020       2.52527
   114    H    8  pz     Ryd( 2p)     0.00033       2.72317

 WARNING:  Population inversion found on atom  C    1
           Population inversion found on atom  C    4
           Population inversion found on atom Cl    7


 Summary of Natural Population Analysis:                  
                                                          
                                       Natural Population 
                Natural  -----------------------------------------------
    Atom  No    Charge         Core      Valence    Rydberg      Total
 -----------------------------------------------------------------------
      C    1    0.79090      1.99932     3.16694    0.04283     5.20910
      O    2   -0.56887      1.99978     6.54383    0.02526     8.56887
      O    3   -0.72608      1.99974     6.70786    0.01847     8.72608
      C    4   -0.57648      1.99917     4.56129    0.01603     6.57648
      H    5    0.53849      0.00000     0.45673    0.00478     0.46151
      H    6    0.30085      0.00000     0.69764    0.00151     0.69915
     Cl    7   -0.05967      9.99973     7.04043    0.01952    17.05967
      H    8    0.30085      0.00000     0.69764    0.00151     0.69915
 =======================================================================
   * Total *   -0.00000     17.99774    29.87235    0.12991    48.00000

                                 Natural Population      
 --------------------------------------------------------
   Core                      17.99774 ( 99.9874% of  18)
   Valence                   29.87235 ( 99.5745% of  30)
   Natural Minimal Basis     47.87009 ( 99.7294% of  48)
   Natural Rydberg Basis      0.12991 (  0.2706% of  48)
 --------------------------------------------------------

    Atom  No          Natural Electron Configuration
 ----------------------------------------------------------------------------
      C    1      [core]2S( 0.80)2p( 2.37)3d( 0.01)4p( 0.03)
      O    2      [core]2S( 1.71)2p( 4.83)3d( 0.02)
      O    3      [core]2S( 1.66)2p( 5.05)3p( 0.01)3d( 0.01)
      C    4      [core]2S( 1.16)2p( 3.40)3d( 0.01)4p( 0.01)
      H    5            1S( 0.46)
      H    6            1S( 0.70)
     Cl    7      [core]3S( 1.86)3p( 5.18)3d( 0.01)5p( 0.01)
      H    8            1S( 0.70)


 NBO analysis skipped by request.
 Leave Link  607 at Mon Feb 25 12:05:57 2019, MaxMem=   104857600 cpu:               0.6 elap:               0.8
 (Enter /opt/g16/l701.exe)
 ... and contract with generalized density number  0.
 Compute integral first derivatives.
 Leave Link  701 at Mon Feb 25 12:05:57 2019, MaxMem=   104857600 cpu:               0.2 elap:               0.2
 (Enter /opt/g16/l702.exe)
 L702 exits ... SP integral derivatives will be done elsewhere.
 Leave Link  702 at Mon Feb 25 12:05:57 2019, MaxMem=   104857600 cpu:               0.0 elap:               0.0
 (Enter /opt/g16/l703.exe)
 Integral derivatives from FoFJK, PRISM(SPDF).
 Compute integral first derivatives, UseDBF=F ICtDFT=           0.
 Calling FoFJK, ICntrl=      2127 FMM=F ISym2X=0 I1Cent= 0 IOpClX= 0 NMat=1 NMatS=1 NMatT=0.
 FoFJK:  IHMeth= 1 ICntrl=    2127 DoSepK=F KAlg= 0 I1Cent=           0 FoldK=F
 IRaf=         0 NMat=       1 IRICut=       1 DoRegI=T DoRafI=F ISym2E= 0 IDoP0=0 IntGTp=1.
 FoFCou: FMM=F IPFlag=           0 FMFlag=      100000 FMFlg1=         800
         NFxFlg=           0 DoJE=F BraDBF=F KetDBF=F FulRan=T
         wScrn=  0.000000 ICntrl=      2127 IOpCl=  0 I1Cent=           0 NGrid=           0
         NMat0=    1 NMatS0=      1 NMatT0=    0 NMatD0=    1 NMtDS0=    0 NMtDT0=    0
 Symmetry not used in FoFCou.
 Leave Link  703 at Mon Feb 25 12:06:10 2019, MaxMem=   104857600 cpu:              12.8 elap:              12.8
 (Enter /opt/g16/l716.exe)
 Dipole        =-1.12351600D+00 8.77700369D-03 5.28428065D-06
 ***** Axes restored to original set *****
 -------------------------------------------------------------------
 Center     Atomic                   Forces (Hartrees/Bohr)
 Number     Number              X              Y              Z
 -------------------------------------------------------------------
      1        6           0.019317680   -0.010660192   -0.009579581
      2        8          -0.019861356    0.001687134    0.001711630
      3        8           0.014433442   -0.004220602   -0.003870932
      4        6           0.004816762    0.010652785    0.009286750
      5        1          -0.003793916    0.013053008    0.011498371
      6        1          -0.002269511    0.001114088   -0.012055484
      7       17          -0.010543189    0.000211334    0.000307785
      8        1          -0.002099913   -0.011837555    0.002701461
 -------------------------------------------------------------------
 Cartesian Forces:  Max     0.019861356 RMS     0.009519118
 Leave Link  716 at Mon Feb 25 12:06:10 2019, MaxMem=   104857600 cpu:               0.1 elap:               0.0
 (Enter /opt/g16/l103.exe)

 GradGradGradGradGradGradGradGradGradGradGradGradGradGradGradGradGradGrad
 Berny optimization.
 FormGI is forming the generalized inverse of G from B-inverse, IUseBI=4.
 Internal  Forces:  Max     0.032115781 RMS     0.009857225
 Search for a local minimum.
 Step number   1 out of a maximum of   35
 All quantities printed in internal units (Hartrees-Bohrs-Radians)
 RMS Force = .98572D-02 SwitMx=.10000D-02 MixMth= 1
 Mixed Optimization -- RFO/linear search
 Second derivative matrix not updated -- first step.
 ITU=  0
     Eigenvalues ---    0.00632   0.01053   0.02312   0.06851   0.07801
     Eigenvalues ---    0.16000   0.16000   0.16000   0.22448   0.25000
     Eigenvalues ---    0.25000   0.27234   0.31338   0.32577   0.32578
     Eigenvalues ---    0.54326   0.54366   0.95224
 RFO step:  Lambda=-9.58967249D-03 EMin= 6.32029091D-03
 Linear search not attempted -- first point.
 Iteration  1 RMS(Cart)=  0.08869029 RMS(Int)=  0.00785638
 Iteration  2 RMS(Cart)=  0.00762115 RMS(Int)=  0.00007554
 Iteration  3 RMS(Cart)=  0.00007128 RMS(Int)=  0.00005941
 Iteration  4 RMS(Cart)=  0.00000001 RMS(Int)=  0.00005941
 ITry= 1 IFail=0 DXMaxC= 3.02D-01 DCOld= 1.00D+10 DXMaxT= 3.00D-01 DXLimC= 3.00D+00 Rises=F
 Variable       Old X    -DE/DX   Delta X   Delta X   Delta X     New X
                                 (Linear)    (Quad)   (Total)
    R1        2.30615  -0.01989   0.00000  -0.02068  -0.02068   2.28547
    R2        2.55700  -0.01540   0.00000  -0.02783  -0.02783   2.52917
    R3        2.85372   0.00499   0.00000   0.01544   0.01544   2.86916
    R4        1.82436   0.00266   0.00000   0.00482   0.00482   1.82918
    R5        2.09800  -0.01223   0.00000  -0.03647  -0.03647   2.06152
    R6        3.37545   0.01050   0.00000   0.03725   0.03725   3.41270
    R7        2.09801  -0.01224   0.00000  -0.03649  -0.03649   2.06152
    A1        2.07490   0.00939   0.00000   0.03616   0.03616   2.11107
    A2        2.07217   0.00436   0.00000   0.01681   0.01681   2.08898
    A3        2.13611  -0.01375   0.00000  -0.05298  -0.05298   2.08314
    A4        2.15052  -0.03212   0.00000  -0.18937  -0.18937   1.96115
    A5        1.90116  -0.00235   0.00000  -0.01382  -0.01389   1.88727
    A6        1.99921   0.00356   0.00000   0.01688   0.01692   2.01613
    A7        1.90115  -0.00235   0.00000  -0.01382  -0.01389   1.88727
    A8        1.88338   0.00013   0.00000   0.00542   0.00545   1.88884
    A9        1.89307   0.00087   0.00000  -0.00041  -0.00061   1.89246
   A10        1.88338   0.00013   0.00000   0.00542   0.00545   1.88884
    D1       -3.14159  -0.00000   0.00000  -0.00001  -0.00001   3.14158
    D2       -0.00001   0.00000   0.00000   0.00001   0.00001  -0.00000
    D3       -1.03093   0.00083   0.00000   0.00816   0.00807  -1.02286
    D4       -3.14159   0.00000   0.00000   0.00001   0.00001  -3.14158
    D5        1.03094  -0.00083   0.00000  -0.00815  -0.00805   1.02289
    D6        2.11068   0.00083   0.00000   0.00815   0.00805   2.11873
    D7        0.00001  -0.00000   0.00000  -0.00001  -0.00001   0.00001
    D8       -2.11065  -0.00083   0.00000  -0.00816  -0.00807  -2.11871
         Item               Value     Threshold  Converged?
 Maximum Force            0.032116     0.000450     NO 
 RMS     Force            0.009857     0.000300     NO 
 Maximum Displacement     0.301589     0.001800     NO 
 RMS     Displacement     0.091493     0.001200     NO 
 Predicted change in Energy=-5.018524D-03
 Lowest energy point so far.  Saving SCF results.
 GradGradGradGradGradGradGradGradGradGradGradGradGradGradGradGradGradGrad

 Leave Link  103 at Mon Feb 25 12:06:10 2019, MaxMem=   104857600 cpu:               0.0 elap:               0.0
 (Enter /opt/g16/l202.exe)
                          Input orientation:                          
 ---------------------------------------------------------------------
 Center     Atomic      Atomic             Coordinates (Angstroms)
 Number     Number       Type             X           Y           Z
 ---------------------------------------------------------------------
      1          6           0       -0.360031    1.619287   -0.101522
      2          8           0        0.849341    1.627226   -0.108583
      3          8           0       -1.047180    0.752075   -0.854531
      4          6           0       -1.113448    2.605734    0.772840
      5          1           0       -2.004402    0.854454   -0.753581
      6          1           0       -0.805350    2.446781    1.807198
      7         17           0       -2.914369    2.495095    0.696670
      8          1           0       -0.820800    3.614127    0.476888
 ---------------------------------------------------------------------
                    Distance matrix (angstroms):
                    1          2          3          4          5
     1  C    0.000000
     2  O    1.209419   0.000000
     3  O    1.338377   2.217909   0.000000
     4  C    1.518296   2.363668   2.467545   0.000000
     5  H    1.927202   3.026062   0.967960   2.488120   0.000000
     6  H    2.127503   2.660807   3.164698   1.090911   3.245122
     7  Cl   2.815812   3.945523   2.988434   1.805924   2.371281
     8  H    2.127500   2.660813   3.164691   1.090911   3.245114
                    6          7          8
     6  H    0.000000
     7  Cl   2.384023   0.000000
     8  H    1.769932   2.384024   0.000000
 Stoichiometry    C2H3ClO2
 Framework group  C1[X(C2H3ClO2)]
 Deg. of freedom    18
 Full point group                 C1      NOp   1
 RotChk:  IX=0 Diff= 4.56D-02
 Largest Abelian subgroup         C1      NOp   1
 Largest concise Abelian subgroup C1      NOp   1
                         Standard orientation:                         
 ---------------------------------------------------------------------
 Center     Atomic      Atomic             Coordinates (Angstroms)
 Number     Number       Type             X           Y           Z
 ---------------------------------------------------------------------
      1          6           0        1.064564   -0.030430    0.000003
      2          8           0        2.144736   -0.574417   -0.000006
      3          8           0        0.965963    1.304310    0.000002
      4          6           0       -0.200353   -0.870198    0.000005
      5          1           0        0.046115    1.605684    0.000002
      6          1           0       -0.184501   -1.507913   -0.884956
      7         17           0       -1.749880    0.057339   -0.000002
      8          1           0       -0.184501   -1.507899    0.884976
 ---------------------------------------------------------------------
 Rotational constants (GHZ):          10.0201571           2.3918740           1.9545225
 Leave Link  202 at Mon Feb 25 12:06:11 2019, MaxMem=   104857600 cpu:               0.0 elap:               0.0
 (Enter /opt/g16/l301.exe)
 Standard basis: 6-31+G(d,p) (6D, 7F)
 Ernie: Thresh=  0.10000D-02 Tol=  0.10000D-05 Strict=F.
 There are   114 symmetry adapted cartesian basis functions of A   symmetry.
 There are   114 symmetry adapted basis functions of A   symmetry.
   114 basis functions,   205 primitive gaussians,   114 cartesian basis functions
    24 alpha electrons       24 beta electrons
       nuclear repulsion energy       215.5430270896 Hartrees.
 IExCor=  402 DFT=T Ex+Corr=B3LYP ExCW=0 ScaHFX=  0.200000
 ScaDFX=  0.800000  0.720000  1.000000  0.810000 ScalE2=  1.000000  1.000000
 IRadAn=      5 IRanWt=     -1 IRanGd=            0 ICorTp=0 IEmpDi=  4
 NAtoms=    8 NActive=    8 NUniq=    8 SFac= 1.00D+00 NAtFMM=   60 NAOKFM=F Big=F
 Integral buffers will be    131072 words long.
 Raffenetti 2 integral format.
 Two-electron integral symmetry is turned on.
 Leave Link  301 at Mon Feb 25 12:06:11 2019, MaxMem=   104857600 cpu:               0.1 elap:               0.1
 (Enter /opt/g16/l302.exe)
 NPDir=0 NMtPBC=     1 NCelOv=     1 NCel=       1 NClECP=     1 NCelD=      1
         NCelK=      1 NCelE2=     1 NClLst=     1 CellRange=     0.0.
 One-electron integrals computed using PRISM.
 One-electron integral symmetry used in STVInt
 NBasis=   114 RedAO= T EigKep=  1.35D-04  NBF=   114
 NBsUse=   114 1.00D-06 EigRej= -1.00D+00 NBFU=   114
 Precomputing XC quadrature grid using
 IXCGrd= 4 IRadAn=           5 IRanWt=          -1 IRanGd=           0 AccXCQ= 0.00D+00.
 Generated NRdTot=       0 NPtTot=           0 NUsed=           0 NTot=          32
 NSgBfM=   114   114   114   114   114 MxSgAt=     8 MxSgA2=     8.
 Leave Link  302 at Mon Feb 25 12:06:11 2019, MaxMem=   104857600 cpu:               0.3 elap:               0.3
 (Enter /opt/g16/l303.exe)
 DipDrv:  MaxL=1.
 Leave Link  303 at Mon Feb 25 12:06:11 2019, MaxMem=   104857600 cpu:               0.0 elap:               0.0
 (Enter /opt/g16/l401.exe)
 Initial guess from the checkpoint file:  "acidocloroacetico.chk"
 B after Tr=     0.000000    0.000000   -0.000000
         Rot=    0.999961   -0.000000    0.000000   -0.008860 Ang=  -1.02 deg.
 Guess basis will be translated and rotated to current coordinates.
 JPrj=2 DoOrth=T DoCkMO=T.
 Generating alternative initial guess.
 ExpMin= 4.38D-02 ExpMax= 2.52D+04 ExpMxC= 3.78D+03 IAcc=3 IRadAn=         5 AccDes= 0.00D+00
 Harris functional with IExCor=  402 and IRadAn=       5 diagonalized for initial guess.
 HarFok:  IExCor=  402 AccDes= 0.00D+00 IRadAn=         5 IDoV= 1 UseB2=F ITyADJ=14
 ICtDFT=  3500011 ScaDFX=  1.000000  1.000000  1.000000  1.000000
 FoFCou: FMM=F IPFlag=           0 FMFlag=      100000 FMFlg1=           0
         NFxFlg=           0 DoJE=T BraDBF=F KetDBF=T FulRan=T
         wScrn=  0.000000 ICntrl=       500 IOpCl=  0 I1Cent=   200000004 NGrid=           0
         NMat0=    1 NMatS0=      1 NMatT0=    0 NMatD0=    1 NMtDS0=    0 NMtDT0=    0
 Petite list used in FoFCou.
 Harris En= -688.629651156704    
 Leave Link  401 at Mon Feb 25 12:06:15 2019, MaxMem=   104857600 cpu:               3.2 elap:               3.2
 (Enter /opt/g16/l502.exe)
 Keep R1 ints in memory in canonical form, NReq=22427226.
 FoFCou: FMM=F IPFlag=           0 FMFlag=           0 FMFlg1=           0
         NFxFlg=           0 DoJE=F BraDBF=F KetDBF=F FulRan=T
         wScrn=  0.000000 ICntrl=       600 IOpCl=  0 I1Cent=           0 NGrid=           0
         NMat0=    1 NMatS0=   6555 NMatT0=    0 NMatD0=    1 NMtDS0=    0 NMtDT0=    0
 Symmetry not used in FoFCou.
 Two-electron integral symmetry not used.
 Closed shell SCF:
 Using DIIS extrapolation, IDIIS=  1040.
 NGot=   104857600 LenX=    83342387 LenY=    83328950
 Requested convergence on RMS density matrix=1.00D-08 within 128 cycles.
 Requested convergence on MAX density matrix=1.00D-06.
 Requested convergence on             energy=1.00D-06.
 No special actions if energy rises.

 Cycle   1  Pass 1  IDiag  1:
 E= -688.680737042090    
 DIIS: error= 5.44D-03 at cycle   1 NSaved=   1.
 NSaved= 1 IEnMin= 1 EnMin= -688.680737042090     IErMin= 1 ErrMin= 5.44D-03
 ErrMax= 5.44D-03  0.00D+00 EMaxC= 1.00D-01 BMatC= 4.85D-03 BMatP= 4.85D-03
 IDIUse=3 WtCom= 9.46D-01 WtEn= 5.44D-02
 Coeff-Com:  0.100D+01
 Coeff-En:   0.100D+01
 Coeff:      0.100D+01
 Gap=     0.607 Goal=   None    Shift=    0.000
 GapD=    0.607 DampG=2.000 DampE=1.000 DampFc=2.0000 IDamp=-1.
 RMSDP=1.65D-03 MaxDP=3.93D-02              OVMax= 2.58D-02

 Cycle   2  Pass 1  IDiag  1:
 E= -688.686647519099     Delta-E=       -0.005910477009 Rises=F Damp=F
 DIIS: error= 7.82D-04 at cycle   2 NSaved=   2.
 NSaved= 2 IEnMin= 2 EnMin= -688.686647519099     IErMin= 2 ErrMin= 7.82D-04
 ErrMax= 7.82D-04  0.00D+00 EMaxC= 1.00D-01 BMatC= 1.18D-04 BMatP= 4.85D-03
 IDIUse=3 WtCom= 9.92D-01 WtEn= 7.82D-03
 Coeff-Com: -0.697D-02 0.101D+01
 Coeff-En:   0.000D+00 0.100D+01
 Coeff:     -0.692D-02 0.101D+01
 Gap=     0.276 Goal=   None    Shift=    0.000
 RMSDP=2.60D-04 MaxDP=4.04D-03 DE=-5.91D-03 OVMax= 5.66D-03

 Cycle   3  Pass 1  IDiag  1:
 E= -688.686636685358     Delta-E=        0.000010833741 Rises=F Damp=F
 DIIS: error= 9.09D-04 at cycle   3 NSaved=   3.
 NSaved= 3 IEnMin= 2 EnMin= -688.686647519099     IErMin= 2 ErrMin= 7.82D-04
 ErrMax= 9.09D-04  0.00D+00 EMaxC= 1.00D-01 BMatC= 1.59D-04 BMatP= 1.18D-04
 IDIUse=3 WtCom= 2.49D-01 WtEn= 7.51D-01
 Coeff-Com: -0.246D-01 0.558D+00 0.467D+00
 Coeff-En:   0.000D+00 0.526D+00 0.474D+00
 Coeff:     -0.613D-02 0.533D+00 0.473D+00
 Gap=     0.279 Goal=   None    Shift=    0.000
 RMSDP=1.43D-04 MaxDP=3.87D-03 DE= 1.08D-05 OVMax= 4.08D-03

 Cycle   4  Pass 1  IDiag  1:
 E= -688.686743153354     Delta-E=       -0.000106467996 Rises=F Damp=F
 DIIS: error= 3.68D-04 at cycle   4 NSaved=   4.
 NSaved= 4 IEnMin= 4 EnMin= -688.686743153354     IErMin= 4 ErrMin= 3.68D-04
 ErrMax= 3.68D-04  0.00D+00 EMaxC= 1.00D-01 BMatC= 2.80D-05 BMatP= 1.18D-04
 IDIUse=3 WtCom= 9.96D-01 WtEn= 3.68D-03
 Coeff-Com: -0.153D-01 0.253D+00 0.325D+00 0.437D+00
 Coeff-En:   0.000D+00 0.000D+00 0.134D+00 0.866D+00
 Coeff:     -0.153D-01 0.252D+00 0.324D+00 0.439D+00
 Gap=     0.277 Goal=   None    Shift=    0.000
 RMSDP=5.25D-05 MaxDP=1.28D-03 DE=-1.06D-04 OVMax= 1.64D-03

 Cycle   5  Pass 1  IDiag  1:
 E= -688.686764046788     Delta-E=       -0.000020893434 Rises=F Damp=F
 DIIS: error= 8.13D-05 at cycle   5 NSaved=   5.
 NSaved= 5 IEnMin= 5 EnMin= -688.686764046788     IErMin= 5 ErrMin= 8.13D-05
 ErrMax= 8.13D-05  0.00D+00 EMaxC= 1.00D-01 BMatC= 1.35D-06 BMatP= 2.80D-05
 IDIUse=1 WtCom= 1.00D+00 WtEn= 0.00D+00
 Coeff-Com: -0.476D-02 0.650D-01 0.115D+00 0.239D+00 0.585D+00
 Coeff:     -0.476D-02 0.650D-01 0.115D+00 0.239D+00 0.585D+00
 Gap=     0.277 Goal=   None    Shift=    0.000
 RMSDP=1.65D-05 MaxDP=2.44D-04 DE=-2.09D-05 OVMax= 2.96D-04

 Cycle   6  Pass 1  IDiag  1:
 E= -688.686765150478     Delta-E=       -0.000001103690 Rises=F Damp=F
 DIIS: error= 1.68D-05 at cycle   6 NSaved=   6.
 NSaved= 6 IEnMin= 6 EnMin= -688.686765150478     IErMin= 6 ErrMin= 1.68D-05
 ErrMax= 1.68D-05  0.00D+00 EMaxC= 1.00D-01 BMatC= 8.31D-08 BMatP= 1.35D-06
 IDIUse=1 WtCom= 1.00D+00 WtEn= 0.00D+00
 Coeff-Com: -0.837D-03 0.634D-02 0.224D-01 0.730D-01 0.273D+00 0.626D+00
 Coeff:     -0.837D-03 0.634D-02 0.224D-01 0.730D-01 0.273D+00 0.626D+00
 Gap=     0.277 Goal=   None    Shift=    0.000
 RMSDP=4.72D-06 MaxDP=1.14D-04 DE=-1.10D-06 OVMax= 1.01D-04

 Cycle   7  Pass 1  IDiag  1:
 E= -688.686765230149     Delta-E=       -0.000000079671 Rises=F Damp=F
 DIIS: error= 5.00D-06 at cycle   7 NSaved=   7.
 NSaved= 7 IEnMin= 7 EnMin= -688.686765230149     IErMin= 7 ErrMin= 5.00D-06
 ErrMax= 5.00D-06  0.00D+00 EMaxC= 1.00D-01 BMatC= 4.68D-09 BMatP= 8.31D-08
 IDIUse=1 WtCom= 1.00D+00 WtEn= 0.00D+00
 Coeff-Com:  0.213D-04-0.287D-02-0.396D-03 0.114D-01 0.685D-01 0.264D+00
 Coeff-Com:  0.659D+00
 Coeff:      0.213D-04-0.287D-02-0.396D-03 0.114D-01 0.685D-01 0.264D+00
 Coeff:      0.659D+00
 Gap=     0.277 Goal=   None    Shift=    0.000
 RMSDP=8.96D-07 MaxDP=2.24D-05 DE=-7.97D-08 OVMax= 1.53D-05

 Cycle   8  Pass 1  IDiag  1:
 E= -688.686765234612     Delta-E=       -0.000000004463 Rises=F Damp=F
 DIIS: error= 9.46D-07 at cycle   8 NSaved=   8.
 NSaved= 8 IEnMin= 8 EnMin= -688.686765234612     IErMin= 8 ErrMin= 9.46D-07
 ErrMax= 9.46D-07  0.00D+00 EMaxC= 1.00D-01 BMatC= 2.17D-10 BMatP= 4.68D-09
 IDIUse=1 WtCom= 1.00D+00 WtEn= 0.00D+00
 Coeff-Com:  0.535D-04-0.148D-02-0.118D-02 0.122D-02 0.163D-01 0.791D-01
 Coeff-Com:  0.266D+00 0.641D+00
 Coeff:      0.535D-04-0.148D-02-0.118D-02 0.122D-02 0.163D-01 0.791D-01
 Coeff:      0.266D+00 0.641D+00
 Gap=     0.277 Goal=   None    Shift=    0.000
 RMSDP=2.87D-07 MaxDP=8.97D-06 DE=-4.46D-09 OVMax= 4.23D-06

 Cycle   9  Pass 1  IDiag  1:
 E= -688.686765234798     Delta-E=       -0.000000000186 Rises=F Damp=F
 DIIS: error= 2.17D-07 at cycle   9 NSaved=   9.
 NSaved= 9 IEnMin= 9 EnMin= -688.686765234798     IErMin= 9 ErrMin= 2.17D-07
 ErrMax= 2.17D-07  0.00D+00 EMaxC= 1.00D-01 BMatC= 1.38D-11 BMatP= 2.17D-10
 IDIUse=1 WtCom= 1.00D+00 WtEn= 0.00D+00
 Coeff-Com:  0.179D-04-0.383D-03-0.405D-03-0.246D-03 0.226D-02 0.136D-01
 Coeff-Com:  0.616D-01 0.251D+00 0.673D+00
 Coeff:      0.179D-04-0.383D-03-0.405D-03-0.246D-03 0.226D-02 0.136D-01
 Coeff:      0.616D-01 0.251D+00 0.673D+00
 Gap=     0.277 Goal=   None    Shift=    0.000
 RMSDP=5.03D-08 MaxDP=1.49D-06 DE=-1.86D-10 OVMax= 1.00D-06

 Cycle  10  Pass 1  IDiag  1:
 E= -688.686765234813     Delta-E=       -0.000000000016 Rises=F Damp=F
 DIIS: error= 1.07D-07 at cycle  10 NSaved=  10.
 NSaved=10 IEnMin=10 EnMin= -688.686765234813     IErMin=10 ErrMin= 1.07D-07
 ErrMax= 1.07D-07  0.00D+00 EMaxC= 1.00D-01 BMatC= 2.60D-12 BMatP= 1.38D-11
 IDIUse=1 WtCom= 1.00D+00 WtEn= 0.00D+00
 Coeff-Com:  0.473D-05-0.650D-04-0.111D-03-0.297D-03-0.405D-03-0.703D-03
 Coeff-Com:  0.800D-02 0.755D-01 0.357D+00 0.561D+00
 Coeff:      0.473D-05-0.650D-04-0.111D-03-0.297D-03-0.405D-03-0.703D-03
 Coeff:      0.800D-02 0.755D-01 0.357D+00 0.561D+00
 Gap=     0.277 Goal=   None    Shift=    0.000
 RMSDP=1.95D-08 MaxDP=3.40D-07 DE=-1.56D-11 OVMax= 3.46D-07

 Cycle  11  Pass 1  IDiag  1:
 E= -688.686765234815     Delta-E=       -0.000000000002 Rises=F Damp=F
 DIIS: error= 3.71D-08 at cycle  11 NSaved=  11.
 NSaved=11 IEnMin=11 EnMin= -688.686765234815     IErMin=11 ErrMin= 3.71D-08
 ErrMax= 3.71D-08  0.00D+00 EMaxC= 1.00D-01 BMatC= 2.73D-13 BMatP= 2.60D-12
 IDIUse=1 WtCom= 1.00D+00 WtEn= 0.00D+00
 Coeff-Com:  0.789D-06 0.236D-05-0.180D-04-0.138D-03-0.415D-03-0.171D-02
 Coeff-Com: -0.165D-02 0.141D-01 0.118D+00 0.301D+00 0.572D+00
 Coeff:      0.789D-06 0.236D-05-0.180D-04-0.138D-03-0.415D-03-0.171D-02
 Coeff:     -0.165D-02 0.141D-01 0.118D+00 0.301D+00 0.572D+00
 Gap=     0.277 Goal=   None    Shift=    0.000
 RMSDP=7.65D-09 MaxDP=1.81D-07 DE=-1.82D-12 OVMax= 1.31D-07

 SCF Done:  E(RB3LYP) =  -688.686765235     A.U. after   11 cycles
            NFock= 11  Conv=0.76D-08     -V/T= 2.0051
 KE= 6.852232400037D+02 PE=-2.059407968592D+03 EE= 4.699549362634D+02
 Leave Link  502 at Mon Feb 25 12:07:02 2019, MaxMem=   104857600 cpu:              47.3 elap:              47.4
 (Enter /opt/g16/l701.exe)
 ... and contract with generalized density number  0.
 Compute integral first derivatives.
 Leave Link  701 at Mon Feb 25 12:07:03 2019, MaxMem=   104857600 cpu:               0.2 elap:               0.2
 (Enter /opt/g16/l702.exe)
 L702 exits ... SP integral derivatives will be done elsewhere.
 Leave Link  702 at Mon Feb 25 12:07:03 2019, MaxMem=   104857600 cpu:               0.0 elap:               0.0
 (Enter /opt/g16/l703.exe)
 Integral derivatives from FoFJK, PRISM(SPDF).
 Compute integral first derivatives, UseDBF=F ICtDFT=           0.
 Calling FoFJK, ICntrl=      2127 FMM=F ISym2X=0 I1Cent= 0 IOpClX= 0 NMat=1 NMatS=1 NMatT=0.
 FoFJK:  IHMeth= 1 ICntrl=    2127 DoSepK=F KAlg= 0 I1Cent=           0 FoldK=F
 IRaf=         0 NMat=       1 IRICut=       1 DoRegI=T DoRafI=F ISym2E= 0 IDoP0=0 IntGTp=1.
 FoFCou: FMM=F IPFlag=           0 FMFlag=      100000 FMFlg1=         800
         NFxFlg=           0 DoJE=F BraDBF=F KetDBF=F FulRan=T
         wScrn=  0.000000 ICntrl=      2127 IOpCl=  0 I1Cent=           0 NGrid=           0
         NMat0=    1 NMatS0=      1 NMatT0=    0 NMatD0=    1 NMtDS0=    0 NMtDT0=    0
 Symmetry not used in FoFCou.
 Leave Link  703 at Mon Feb 25 12:07:16 2019, MaxMem=   104857600 cpu:              13.2 elap:              13.3
 (Enter /opt/g16/l716.exe)
 Dipole        =-1.15413156D+00-1.54691154D-01 1.02154827D-05
 ***** Axes restored to original set *****
 -------------------------------------------------------------------
 Center     Atomic                   Forces (Hartrees/Bohr)
 Number     Number              X              Y              Z
 -------------------------------------------------------------------
      1        6           0.006655695   -0.005067773   -0.004522239
      2        8          -0.002627015    0.002724755    0.002420725
      3        8           0.001999712   -0.003677462   -0.003250604
      4        6           0.002183324    0.003593258    0.003126732
      5        1          -0.004159205    0.002452346    0.002200117
      6        1          -0.001120051   -0.000275256    0.000170461
      7       17          -0.001806901    0.000129767    0.000134802
      8        1          -0.001125558    0.000120365   -0.000279994
 -------------------------------------------------------------------
 Cartesian Forces:  Max     0.006655695 RMS     0.002889154
 Leave Link  716 at Mon Feb 25 12:07:16 2019, MaxMem=   104857600 cpu:               0.0 elap:               0.0
 (Enter /opt/g16/l103.exe)

 GradGradGradGradGradGradGradGradGradGradGradGradGradGradGradGradGradGrad
 Berny optimization.
 Using GEDIIS/GDIIS optimizer.
 FormGI is forming the generalized inverse of G from B-inverse, IUseBI=4.
 Internal  Forces:  Max     0.005252144 RMS     0.002299132
 Search for a local minimum.
 Step number   2 out of a maximum of   35
 All quantities printed in internal units (Hartrees-Bohrs-Radians)
 RMS Force = .22991D-02 SwitMx=.10000D-02 MixMth= 1
 Mixed Optimization -- RFO/linear search
 Update second derivatives using D2CorX and points    1    2
 DE= -5.66D-03 DEPred=-5.02D-03 R= 1.13D+00
 TightC=F SS=  1.41D+00  RLast= 2.16D-01 DXNew= 5.0454D-01 6.4875D-01
 Trust test= 1.13D+00 RLast= 2.16D-01 DXMaxT set to 5.05D-01
 ITU=  1  0
 Use linear search instead of GDIIS.
     Eigenvalues ---    0.00632   0.01060   0.02312   0.06764   0.07960
     Eigenvalues ---    0.14151   0.16000   0.16173   0.22445   0.23843
     Eigenvalues ---    0.25675   0.27137   0.30996   0.32577   0.33454
     Eigenvalues ---    0.53949   0.56301   0.94655
 RFO step:  Lambda=-4.09915377D-04 EMin= 6.32029091D-03
 Quartic linear search produced a step of  0.12972.
 Iteration  1 RMS(Cart)=  0.01682597 RMS(Int)=  0.00038327
 Iteration  2 RMS(Cart)=  0.00037665 RMS(Int)=  0.00002706
 Iteration  3 RMS(Cart)=  0.00000017 RMS(Int)=  0.00002706
 ITry= 1 IFail=0 DXMaxC= 5.22D-02 DCOld= 1.00D+10 DXMaxT= 5.05D-01 DXLimC= 3.00D+00 Rises=F
 Variable       Old X    -DE/DX   Delta X   Delta X   Delta X     New X
                                 (Linear)    (Quad)   (Total)
    R1        2.28547  -0.00262  -0.00268  -0.00121  -0.00389   2.28158
    R2        2.52917   0.00249  -0.00361   0.00786   0.00425   2.53342
    R3        2.86916   0.00506   0.00200   0.01661   0.01862   2.88778
    R4        1.82918   0.00460   0.00062   0.00910   0.00972   1.83890
    R5        2.06152  -0.00011  -0.00473   0.00337  -0.00136   2.06016
    R6        3.41270   0.00179   0.00483   0.00343   0.00826   3.42097
    R7        2.06152  -0.00011  -0.00473   0.00337  -0.00136   2.06016
    A1        2.11107   0.00525   0.00469   0.01977   0.02446   2.13553
    A2        2.08898  -0.00309   0.00218  -0.01575  -0.01357   2.07541
    A3        2.08314  -0.00217  -0.00687  -0.00402  -0.01089   2.07225
    A4        1.96115  -0.00483  -0.02456  -0.01108  -0.03564   1.92550
    A5        1.88727   0.00070  -0.00180   0.00777   0.00593   1.89320
    A6        2.01613   0.00014   0.00219  -0.00309  -0.00089   2.01524
    A7        1.88727   0.00071  -0.00180   0.00777   0.00593   1.89320
    A8        1.88884  -0.00091   0.00071  -0.00990  -0.00919   1.87965
    A9        1.89246   0.00028  -0.00008   0.00823   0.00806   1.90052
   A10        1.88884  -0.00091   0.00071  -0.00990  -0.00919   1.87965
    D1        3.14158   0.00000  -0.00000   0.00003   0.00003  -3.14157
    D2       -0.00000  -0.00000   0.00000  -0.00003  -0.00002  -0.00003
    D3       -1.02286  -0.00054   0.00105  -0.00907  -0.00806  -1.03092
    D4       -3.14158  -0.00000   0.00000  -0.00003  -0.00003   3.14157
    D5        1.02289   0.00054  -0.00104   0.00899   0.00799   1.03088
    D6        2.11873  -0.00054   0.00104  -0.00901  -0.00800   2.11072
    D7        0.00001   0.00000  -0.00000   0.00002   0.00002   0.00003
    D8       -2.11871   0.00054  -0.00105   0.00905   0.00805  -2.11067
         Item               Value     Threshold  Converged?
 Maximum Force            0.005252     0.000450     NO 
 RMS     Force            0.002299     0.000300     NO 
 Maximum Displacement     0.052158     0.001800     NO 
 RMS     Displacement     0.016913     0.001200     NO 
 Predicted change in Energy=-3.112869D-04
 Lowest energy point so far.  Saving SCF results.
 GradGradGradGradGradGradGradGradGradGradGradGradGradGradGradGradGradGrad

 Leave Link  103 at Mon Feb 25 12:07:17 2019, MaxMem=   104857600 cpu:               0.0 elap:               0.0
 (Enter /opt/g16/l202.exe)
                          Input orientation:                          
 ---------------------------------------------------------------------
 Center     Atomic      Atomic             Coordinates (Angstroms)
 Number     Number       Type             X           Y           Z
 ---------------------------------------------------------------------
      1          6           0       -0.350643    1.609728   -0.109996
      2          8           0        0.856526    1.630812   -0.105537
      3          8           0       -1.050394    0.746212   -0.859643
      4          6           0       -1.110159    2.602058    0.769580
      5          1           0       -2.005120    0.882055   -0.729356
      6          1           0       -0.812887    2.442626    1.806272
      7         17           0       -2.915198    2.488717    0.691079
      8          1           0       -0.828366    3.612574    0.472982
 ---------------------------------------------------------------------
                    Distance matrix (angstroms):
                    1          2          3          4          5
     1  C    0.000000
     2  O    1.207361   0.000000
     3  O    1.340627   2.233279   0.000000
     4  C    1.528148   2.361566   2.470244   0.000000
     5  H    1.910604   3.023045   0.973104   2.450750   0.000000
     6  H    2.139970   2.664768   3.168806   1.090192   3.207212
     7  Cl   2.826886   3.949240   2.986395   1.810297   2.329643
     8  H    2.139971   2.664756   3.168788   1.090192   3.207195
                    6          7          8
     6  H    0.000000
     7  Cl   2.380229   0.000000
     8  H    1.773888   2.380229   0.000000
 Stoichiometry    C2H3ClO2
 Framework group  C1[X(C2H3ClO2)]
 Deg. of freedom    18
 Full point group                 C1      NOp   1
 RotChk:  IX=0 Diff= 5.84D-03
 Largest Abelian subgroup         C1      NOp   1
 Largest concise Abelian subgroup C1      NOp   1
                         Standard orientation:                         
 ---------------------------------------------------------------------
 Center     Atomic      Atomic             Coordinates (Angstroms)
 Number     Number       Type             X           Y           Z
 ---------------------------------------------------------------------
      1          6           0        1.075041   -0.022633   -0.000016
      2          8           0        2.147697   -0.576825    0.000005
      3          8           0        0.957420    1.312825    0.000003
      4          6           0       -0.195356   -0.871944    0.000002
      5          1           0        0.018760    1.569434    0.000003
      6          1           0       -0.187105   -1.505816   -0.886935
      7         17           0       -1.750800    0.054214    0.000000
      8          1           0       -0.187095   -1.505796    0.886953
 ---------------------------------------------------------------------
 Rotational constants (GHZ):           9.9613257           2.3884125           1.9500731
 Leave Link  202 at Mon Feb 25 12:07:17 2019, MaxMem=   104857600 cpu:               0.0 elap:               0.0
 (Enter /opt/g16/l301.exe)
 Standard basis: 6-31+G(d,p) (6D, 7F)
 Ernie: Thresh=  0.10000D-02 Tol=  0.10000D-05 Strict=F.
 There are   114 symmetry adapted cartesian basis functions of A   symmetry.
 There are   114 symmetry adapted basis functions of A   symmetry.
   114 basis functions,   205 primitive gaussians,   114 cartesian basis functions
    24 alpha electrons       24 beta electrons
       nuclear repulsion energy       215.2846209733 Hartrees.
 IExCor=  402 DFT=T Ex+Corr=B3LYP ExCW=0 ScaHFX=  0.200000
 ScaDFX=  0.800000  0.720000  1.000000  0.810000 ScalE2=  1.000000  1.000000
 IRadAn=      5 IRanWt=     -1 IRanGd=            0 ICorTp=0 IEmpDi=  4
 NAtoms=    8 NActive=    8 NUniq=    8 SFac= 1.00D+00 NAtFMM=   60 NAOKFM=F Big=F
 Integral buffers will be    131072 words long.
 Raffenetti 2 integral format.
 Two-electron integral symmetry is turned on.
 Leave Link  301 at Mon Feb 25 12:07:17 2019, MaxMem=   104857600 cpu:               0.1 elap:               0.1
 (Enter /opt/g16/l302.exe)
 NPDir=0 NMtPBC=     1 NCelOv=     1 NCel=       1 NClECP=     1 NCelD=      1
         NCelK=      1 NCelE2=     1 NClLst=     1 CellRange=     0.0.
 One-electron integrals computed using PRISM.
 One-electron integral symmetry used in STVInt
 NBasis=   114 RedAO= T EigKep=  1.41D-04  NBF=   114
 NBsUse=   114 1.00D-06 EigRej= -1.00D+00 NBFU=   114
 Precomputing XC quadrature grid using
 IXCGrd= 4 IRadAn=           5 IRanWt=          -1 IRanGd=           0 AccXCQ= 0.00D+00.
 Generated NRdTot=       0 NPtTot=           0 NUsed=           0 NTot=          32
 NSgBfM=   114   114   114   114   114 MxSgAt=     8 MxSgA2=     8.
 Leave Link  302 at Mon Feb 25 12:07:18 2019, MaxMem=   104857600 cpu:               0.4 elap:               0.4
 (Enter /opt/g16/l303.exe)
 DipDrv:  MaxL=1.
 Leave Link  303 at Mon Feb 25 12:07:18 2019, MaxMem=   104857600 cpu:               0.1 elap:               0.1
 (Enter /opt/g16/l401.exe)
 Initial guess from the checkpoint file:  "acidocloroacetico.chk"
 B after Tr=     0.000000   -0.000000   -0.000000
         Rot=    0.999999    0.000000   -0.000000   -0.001272 Ang=   0.15 deg.
 Guess basis will be translated and rotated to current coordinates.
 JPrj=2 DoOrth=T DoCkMO=T.
 Generating alternative initial guess.
 ExpMin= 4.38D-02 ExpMax= 2.52D+04 ExpMxC= 3.78D+03 IAcc=3 IRadAn=         5 AccDes= 0.00D+00
 Harris functional with IExCor=  402 and IRadAn=       5 diagonalized for initial guess.
 HarFok:  IExCor=  402 AccDes= 0.00D+00 IRadAn=         5 IDoV= 1 UseB2=F ITyADJ=14
 ICtDFT=  3500011 ScaDFX=  1.000000  1.000000  1.000000  1.000000
 FoFCou: FMM=F IPFlag=           0 FMFlag=      100000 FMFlg1=           0
         NFxFlg=           0 DoJE=T BraDBF=F KetDBF=T FulRan=T
         wScrn=  0.000000 ICntrl=       500 IOpCl=  0 I1Cent=   200000004 NGrid=           0
         NMat0=    1 NMatS0=      1 NMatT0=    0 NMatD0=    1 NMtDS0=    0 NMtDT0=    0
 Petite list used in FoFCou.
 Harris En= -688.629330649507    
 Leave Link  401 at Mon Feb 25 12:07:21 2019, MaxMem=   104857600 cpu:               3.4 elap:               3.5
 (Enter /opt/g16/l502.exe)
 Keep R1 ints in memory in canonical form, NReq=22427226.
 FoFCou: FMM=F IPFlag=           0 FMFlag=           0 FMFlg1=           0
         NFxFlg=           0 DoJE=F BraDBF=F KetDBF=F FulRan=T
         wScrn=  0.000000 ICntrl=       600 IOpCl=  0 I1Cent=           0 NGrid=           0
         NMat0=    1 NMatS0=   6555 NMatT0=    0 NMatD0=    1 NMtDS0=    0 NMtDT0=    0
 Symmetry not used in FoFCou.
 Two-electron integral symmetry not used.
 Closed shell SCF:
 Using DIIS extrapolation, IDIIS=  1040.
 NGot=   104857600 LenX=    83342387 LenY=    83328950
 Requested convergence on RMS density matrix=1.00D-08 within 128 cycles.
 Requested convergence on MAX density matrix=1.00D-06.
 Requested convergence on             energy=1.00D-06.
 No special actions if energy rises.

 Cycle   1  Pass 1  IDiag  1:
 E= -688.686643212204    
 DIIS: error= 1.08D-03 at cycle   1 NSaved=   1.
 NSaved= 1 IEnMin= 1 EnMin= -688.686643212204     IErMin= 1 ErrMin= 1.08D-03
 ErrMax= 1.08D-03  0.00D+00 EMaxC= 1.00D-01 BMatC= 3.16D-04 BMatP= 3.16D-04
 IDIUse=3 WtCom= 9.89D-01 WtEn= 1.08D-02
 Coeff-Com:  0.100D+01
 Coeff-En:   0.100D+01
 Coeff:      0.100D+01
 Gap=     0.607 Goal=   None    Shift=    0.000
 GapD=    0.607 DampG=2.000 DampE=1.000 DampFc=2.0000 IDamp=-1.
 RMSDP=3.77D-04 MaxDP=7.56D-03              OVMax= 6.18D-03

 Cycle   2  Pass 1  IDiag  1:
 E= -688.687054906515     Delta-E=       -0.000411694310 Rises=F Damp=F
 DIIS: error= 3.11D-04 at cycle   2 NSaved=   2.
 NSaved= 2 IEnMin= 2 EnMin= -688.687054906515     IErMin= 2 ErrMin= 3.11D-04
 ErrMax= 3.11D-04  0.00D+00 EMaxC= 1.00D-01 BMatC= 2.39D-05 BMatP= 3.16D-04
 IDIUse=3 WtCom= 9.97D-01 WtEn= 3.11D-03
 Coeff-Com:  0.513D-01 0.949D+00
 Coeff-En:   0.000D+00 0.100D+01
 Coeff:      0.512D-01 0.949D+00
 Gap=     0.276 Goal=   None    Shift=    0.000
 RMSDP=1.00D-04 MaxDP=2.93D-03 DE=-4.12D-04 OVMax= 2.94D-03

 Cycle   3  Pass 1  IDiag  1:
 E= -688.687010493623     Delta-E=        0.000044412891 Rises=F Damp=F
 DIIS: error= 6.23D-04 at cycle   3 NSaved=   3.
 NSaved= 3 IEnMin= 2 EnMin= -688.687054906515     IErMin= 2 ErrMin= 3.11D-04
 ErrMax= 6.23D-04  0.00D+00 EMaxC= 1.00D-01 BMatC= 8.32D-05 BMatP= 2.39D-05
 IDIUse=3 WtCom= 2.86D-01 WtEn= 7.14D-01
 Coeff-Com: -0.372D-01 0.677D+00 0.360D+00
 Coeff-En:   0.000D+00 0.729D+00 0.271D+00
 Coeff:     -0.106D-01 0.714D+00 0.297D+00
 Gap=     0.278 Goal=   None    Shift=    0.000
 RMSDP=6.24D-05 MaxDP=1.83D-03 DE= 4.44D-05 OVMax= 2.06D-03

 Cycle   4  Pass 1  IDiag  1:
 E= -688.687073054648     Delta-E=       -0.000062561025 Rises=F Damp=F
 DIIS: error= 6.10D-05 at cycle   4 NSaved=   4.
 NSaved= 4 IEnMin= 4 EnMin= -688.687073054648     IErMin= 4 ErrMin= 6.10D-05
 ErrMax= 6.10D-05  0.00D+00 EMaxC= 1.00D-01 BMatC= 1.34D-06 BMatP= 2.39D-05
 IDIUse=1 WtCom= 1.00D+00 WtEn= 0.00D+00
 Coeff-Com: -0.183D-01 0.282D+00 0.791D-01 0.658D+00
 Coeff:     -0.183D-01 0.282D+00 0.791D-01 0.658D+00
 Gap=     0.278 Goal=   None    Shift=    0.000
 RMSDP=1.65D-05 MaxDP=3.74D-04 DE=-6.26D-05 OVMax= 3.84D-04

 Cycle   5  Pass 1  IDiag  1:
 E= -688.687074104180     Delta-E=       -0.000001049532 Rises=F Damp=F
 DIIS: error= 2.21D-05 at cycle   5 NSaved=   5.
 NSaved= 5 IEnMin= 5 EnMin= -688.687074104180     IErMin= 5 ErrMin= 2.21D-05
 ErrMax= 2.21D-05  0.00D+00 EMaxC= 1.00D-01 BMatC= 1.44D-07 BMatP= 1.34D-06
 IDIUse=1 WtCom= 1.00D+00 WtEn= 0.00D+00
 Coeff-Com: -0.584D-02 0.755D-01 0.223D-02 0.382D+00 0.546D+00
 Coeff:     -0.584D-02 0.755D-01 0.223D-02 0.382D+00 0.546D+00
 Gap=     0.278 Goal=   None    Shift=    0.000
 RMSDP=5.05D-06 MaxDP=7.55D-05 DE=-1.05D-06 OVMax= 8.88D-05

 Cycle   6  Pass 1  IDiag  1:
 E= -688.687074230254     Delta-E=       -0.000000126073 Rises=F Damp=F
 DIIS: error= 5.50D-06 at cycle   6 NSaved=   6.
 NSaved= 6 IEnMin= 6 EnMin= -688.687074230254     IErMin= 6 ErrMin= 5.50D-06
 ErrMax= 5.50D-06  0.00D+00 EMaxC= 1.00D-01 BMatC= 6.78D-09 BMatP= 1.44D-07
 IDIUse=1 WtCom= 1.00D+00 WtEn= 0.00D+00
 Coeff-Com: -0.151D-02 0.153D-01-0.531D-02 0.138D+00 0.258D+00 0.595D+00
 Coeff:     -0.151D-02 0.153D-01-0.531D-02 0.138D+00 0.258D+00 0.595D+00
 Gap=     0.278 Goal=   None    Shift=    0.000
 RMSDP=1.24D-06 MaxDP=2.64D-05 DE=-1.26D-07 OVMax= 1.69D-05

 Cycle   7  Pass 1  IDiag  1:
 E= -688.687074235231     Delta-E=       -0.000000004977 Rises=F Damp=F
 DIIS: error= 2.45D-06 at cycle   7 NSaved=   7.
 NSaved= 7 IEnMin= 7 EnMin= -688.687074235231     IErMin= 7 ErrMin= 2.45D-06
 ErrMax= 2.45D-06  0.00D+00 EMaxC= 1.00D-01 BMatC= 7.59D-10 BMatP= 6.78D-09
 IDIUse=1 WtCom= 1.00D+00 WtEn= 0.00D+00
 Coeff-Com: -0.735D-04-0.168D-02-0.370D-02 0.279D-01 0.701D-01 0.295D+00
 Coeff-Com:  0.613D+00
 Coeff:     -0.735D-04-0.168D-02-0.370D-02 0.279D-01 0.701D-01 0.295D+00
 Coeff:      0.613D+00
 Gap=     0.278 Goal=   None    Shift=    0.000
 RMSDP=3.57D-07 MaxDP=7.09D-06 DE=-4.98D-09 OVMax= 7.17D-06

 Cycle   8  Pass 1  IDiag  1:
 E= -688.687074235823     Delta-E=       -0.000000000593 Rises=F Damp=F
 DIIS: error= 5.44D-07 at cycle   8 NSaved=   8.
 NSaved= 8 IEnMin= 8 EnMin= -688.687074235823     IErMin= 8 ErrMin= 5.44D-07
 ErrMax= 5.44D-07  0.00D+00 EMaxC= 1.00D-01 BMatC= 5.74D-11 BMatP= 7.59D-10
 IDIUse=1 WtCom= 1.00D+00 WtEn= 0.00D+00
 Coeff-Com:  0.780D-04-0.199D-02-0.144D-02 0.313D-02 0.135D-01 0.939D-01
 Coeff-Com:  0.302D+00 0.591D+00
 Coeff:      0.780D-04-0.199D-02-0.144D-02 0.313D-02 0.135D-01 0.939D-01
 Coeff:      0.302D+00 0.591D+00
 Gap=     0.278 Goal=   None    Shift=    0.000
 RMSDP=9.89D-08 MaxDP=2.14D-06 DE=-5.93D-10 OVMax= 1.55D-06

 Cycle   9  Pass 1  IDiag  1:
 E= -688.687074235872     Delta-E=       -0.000000000048 Rises=F Damp=F
 DIIS: error= 6.05D-08 at cycle   9 NSaved=   9.
 NSaved= 9 IEnMin= 9 EnMin= -688.687074235872     IErMin= 9 ErrMin= 6.05D-08
 ErrMax= 6.05D-08  0.00D+00 EMaxC= 1.00D-01 BMatC= 9.84D-13 BMatP= 5.74D-11
 IDIUse=1 WtCom= 1.00D+00 WtEn= 0.00D+00
 Coeff-Com:  0.256D-04-0.549D-03-0.356D-03 0.251D-03 0.214D-02 0.200D-01
 Coeff-Com:  0.836D-01 0.198D+00 0.697D+00
 Coeff:      0.256D-04-0.549D-03-0.356D-03 0.251D-03 0.214D-02 0.200D-01
 Coeff:      0.836D-01 0.198D+00 0.697D+00
 Gap=     0.278 Goal=   None    Shift=    0.000
 RMSDP=1.90D-08 MaxDP=4.45D-07 DE=-4.83D-11 OVMax= 3.67D-07

 Cycle  10  Pass 1  IDiag  1:
 E= -688.687074235873     Delta-E=       -0.000000000001 Rises=F Damp=F
 DIIS: error= 2.31D-08 at cycle  10 NSaved=  10.
 NSaved=10 IEnMin=10 EnMin= -688.687074235873     IErMin=10 ErrMin= 2.31D-08
 ErrMax= 2.31D-08  0.00D+00 EMaxC= 1.00D-01 BMatC= 8.52D-14 BMatP= 9.84D-13
[...]
      6          1           0       -0.813376    2.441766    1.808220
      7         17           0       -2.916982    2.488130    0.690546
      8          1           0       -0.828809    3.614260    0.471789
 ---------------------------------------------------------------------
                    Distance matrix (angstroms):
                    1          2          3          4          5
     1  C    0.000000
     2  O    1.206714   0.000000
     3  O    1.340841   2.233221   0.000000
     4  C    1.530808   2.362600   2.473257   0.000000
     5  H    1.912139   3.024055   0.973956   2.454645   0.000000
     6  H    2.142361   2.667425   3.170360   1.090163   3.208923
     7  Cl   2.829544   3.951538   2.987271   1.814143   2.329776
     8  H    2.142386   2.667134   3.170163   1.090165   3.208772
                    6          7          8
     6  H    0.000000
     7  Cl   2.382542   0.000000
     8  H    1.777928   2.382539   0.000000
 Stoichiometry    C2H3ClO2
 Framework group  C1[X(C2H3ClO2)]
 Deg. of freedom    18
 Full point group                 C1      NOp   1
 RotChk:  IX=0 Diff= 2.20D-15
 Largest Abelian subgroup         C1      NOp   1
 Largest concise Abelian subgroup C1      NOp   1
                         Standard orientation:                         
 ---------------------------------------------------------------------
 Center     Atomic      Atomic             Coordinates (Angstroms)
 Number     Number       Type             X           Y           Z
 ---------------------------------------------------------------------
      1          6           0        1.076471   -0.022404   -0.000266
      2          8           0        2.148921   -0.575585    0.000140
      3          8           0        0.957267    1.313128    0.000019
      4          6           0       -0.194559   -0.875547   -0.000047
      5          1           0        0.017767    1.569897    0.000011
      6          1           0       -0.187285   -1.506606   -0.888960
      7         17           0       -1.752021    0.054737    0.000035
      8          1           0       -0.187112   -1.506464    0.888968
 ---------------------------------------------------------------------
 Rotational constants (GHZ):           9.9455665           2.3853756           1.9475532
 Leave Link  202 at Mon Feb 25 12:10:08 2019, MaxMem=   104857600 cpu:               0.0 elap:               0.0
 (Enter /opt/g16/l601.exe)
 Copying SCF densities to generalized density rwf, IOpCl= 0 IROHF=0.

 **********************************************************************

            Population analysis using the SCF Density.

 **********************************************************************

 Orbital symmetries:
       Occupied  (A) (A) (A) (A) (A) (A) (A) (A) (A) (A) (A) (A)
                 (A) (A) (A) (A) (A) (A) (A) (A) (A) (A) (A) (A)
       Virtual   (A) (A) (A) (A) (A) (A) (A) (A) (A) (A) (A) (A)
                 (A) (A) (A) (A) (A) (A) (A) (A) (A) (A) (A) (A)
                 (A) (A) (A) (A) (A) (A) (A) (A) (A) (A) (A) (A)
                 (A) (A) (A) (A) (A) (A) (A) (A) (A) (A) (A) (A)
                 (A) (A) (A) (A) (A) (A) (A) (A) (A) (A) (A) (A)
                 (A) (A) (A) (A) (A) (A) (A) (A) (A) (A) (A) (A)
                 (A) (A) (A) (A) (A) (A) (A) (A) (A) (A) (A) (A)
                 (A) (A) (A) (A) (A) (A)
 The electronic state is 1-A.
 Alpha  occ. eigenvalues -- -101.58233 -19.23077 -19.17072 -10.35806 -10.29267
 Alpha  occ. eigenvalues --   -9.49828  -7.26214  -7.25287  -7.25204  -1.13610
 Alpha  occ. eigenvalues --   -1.05417  -0.89586  -0.74792  -0.64742  -0.56070
 Alpha  occ. eigenvalues --   -0.51935  -0.48906  -0.44977  -0.44480  -0.41255
 Alpha  occ. eigenvalues --   -0.36037  -0.35369  -0.33449  -0.30356
 Alpha virt. eigenvalues --   -0.02656  -0.02545  -0.01327   0.02694   0.03947
 Alpha virt. eigenvalues --    0.04777   0.06407   0.07446   0.07949   0.08063
 Alpha virt. eigenvalues --    0.09008   0.11004   0.11793   0.14012   0.18527
 Alpha virt. eigenvalues --    0.18696   0.18802   0.20319   0.21483   0.25647
 Alpha virt. eigenvalues --    0.26648   0.27906   0.28168   0.30722   0.32062
 Alpha virt. eigenvalues --    0.33529   0.36559   0.41438   0.54990   0.56719
 Alpha virt. eigenvalues --    0.58035   0.60369   0.61882   0.65881   0.65964
 Alpha virt. eigenvalues --    0.68833   0.74957   0.77578   0.82891   0.84135
 Alpha virt. eigenvalues --    0.90207   0.93808   0.96937   0.97221   1.04374
 Alpha virt. eigenvalues --    1.06186   1.10937   1.13067   1.16025   1.24313
 Alpha virt. eigenvalues --    1.27460   1.30002   1.31355   1.33377   1.41745
 Alpha virt. eigenvalues --    1.42080   1.52464   1.53804   1.58616   1.68726
 Alpha virt. eigenvalues --    1.72982   1.75274   1.81414   1.84974   1.93009
 Alpha virt. eigenvalues --    1.99780   2.05506   2.09833   2.17564   2.26409
 Alpha virt. eigenvalues --    2.28364   2.41109   2.43729   2.50902   2.53930
 Alpha virt. eigenvalues --    2.60186   2.69766   2.72764   2.76874   2.94068
 Alpha virt. eigenvalues --    3.03477   3.20564   3.28085   3.38712   3.48424
 Alpha virt. eigenvalues --    4.17271   4.20852   4.32855   4.38117   4.55466
          Condensed to atoms (all electrons):
               1          2          3          4          5          6
     1  C    4.963814   0.477778   0.112222  -0.000315   0.077346  -0.001253
     2  O    0.477778   8.203291  -0.112227  -0.166817   0.010509  -0.006149
     3  O    0.112222  -0.112227   8.311506  -0.090901   0.177510   0.000902
     4  C   -0.000315  -0.166817  -0.090901   5.901122  -0.071808   0.343194
     5  H    0.077346   0.010509   0.177510  -0.071808   0.411997   0.000793
     6  H   -0.001253  -0.006149   0.000902   0.343194   0.000793   0.486483
     7  Cl   0.019862   0.013528  -0.014668   0.056027   0.053335  -0.034075
     8  H   -0.001245  -0.006157   0.000892   0.343217   0.000793  -0.022796
               7          8
     1  C    0.019862  -0.001245
     2  O    0.013528  -0.006157
     3  O   -0.014668   0.000892
     4  C    0.056027   0.343217
     5  H    0.053335   0.000793
     6  H   -0.034075  -0.022796
     7  Cl  16.984492  -0.034077
     8  H   -0.034077   0.486451
 Mulliken charges:
               1
     1  C    0.351788
     2  O   -0.413756
     3  O   -0.385236
     4  C   -0.313719
     5  H    0.339525
     6  H    0.232900
     7  Cl  -0.044425
     8  H    0.232923
 Sum of Mulliken charges =  -0.00000
 Mulliken charges with hydrogens summed into heavy atoms:
               1
     1  C    0.351788
     2  O   -0.413756
     3  O   -0.045711
     4  C    0.152104
     7  Cl  -0.044425
 Electronic spatial extent (au):  <R**2>=            562.6166
 Charge=             -0.0000 electrons
 Dipole moment (field-independent basis, Debye):
    X=             -2.8713    Y=             -0.4719    Z=             -0.0007  Tot=              2.9099
 Quadrupole moment (field-independent basis, Debye-Ang):
   XX=            -47.0373   YY=            -34.0484   ZZ=            -34.9557
   XY=             -0.0840   XZ=             -0.0012   YZ=              0.0000
 Traceless Quadrupole moment (field-independent basis, Debye-Ang):
   XX=             -8.3568   YY=              4.6321   ZZ=              3.7248
   XY=             -0.0840   XZ=             -0.0012   YZ=              0.0000
 Octapole moment (field-independent basis, Debye-Ang**2):
  XXX=            -16.8799  YYY=              2.4786  ZZZ=              0.0007  XYY=             -6.4075
  XXY=              5.8062  XXZ=             -0.0013  XZZ=              1.9000  YZZ=             -1.4212
  YYZ=              0.0007  XYZ=             -0.0002
 Hexadecapole moment (field-independent basis, Debye-Ang**3):
 XXXX=           -537.2469 YYYY=           -147.5890 ZZZZ=            -41.6242 XXXY=              2.8419
 XXXZ=             -0.0028 YYYX=             -4.0517 YYYZ=              0.0010 ZZZX=              0.0008
 ZZZY=             -0.0005 XXYY=           -117.2016 XXZZ=            -91.5462 YYZZ=            -30.6581
 XXYZ=              0.0001 YYXZ=              0.0008 ZZXY=              0.2241
 N-N= 2.151320993188D+02 E-N=-2.058552680579D+03  KE= 6.851966808203D+02
 No NMR shielding tensors so no spin-rotation constants.
 Leave Link  601 at Mon Feb 25 12:10:08 2019, MaxMem=   104857600 cpu:               0.2 elap:               0.2
 (Enter /opt/g16/l607.exe)
 ******************************Gaussian NBO Version 3.1******************************
             N A T U R A L   A T O M I C   O R B I T A L   A N D
          N A T U R A L   B O N D   O R B I T A L   A N A L Y S I S
 ******************************Gaussian NBO Version 3.1******************************
       /RESON  / : Allow strongly delocalized NBO set

 Analyzing the SCF density

 Job title: acidocloroacetico                                               

 Storage needed:     39606 in NPA ( 104857200 available)
 GSVD:  LWork=        6506 too small for GESVD, short by        5979 words or        5979 for optimal perf.


 NATURAL POPULATIONS:  Natural atomic orbital occupancies 
                                                          
   NAO  Atom  No  lang   Type(AO)    Occupancy      Energy
 ----------------------------------------------------------
     1    C    1  S      Cor( 1S)     1.99940     -10.24162
     2    C    1  S      Val( 2S)     0.79434      -0.21172
     3    C    1  S      Ryd( 4S)     0.00521       1.39559
     4    C    1  S      Ryd( 3S)     0.00042       1.11081
     5    C    1  S      Ryd( 5S)     0.00031       2.78338
     6    C    1  px     Val( 2p)     0.85388      -0.05724
     7    C    1  px     Ryd( 4p)     0.01485       0.69350
     8    C    1  px     Ryd( 3p)     0.00085       0.29143
     9    C    1  py     Val( 2p)     0.75342      -0.05662
    10    C    1  py     Ryd( 4p)     0.00941       0.69877
    11    C    1  py     Ryd( 3p)     0.00056       0.33988
    12    C    1  pz     Val( 2p)     0.76274      -0.15924
    13    C    1  pz     Ryd( 4p)     0.00233       0.56247
    14    C    1  pz     Ryd( 3p)     0.00044       0.20810
    15    C    1  dxy    Ryd( 3d)     0.00255       2.59539
    16    C    1  dxz    Ryd( 3d)     0.00118       2.13360
    17    C    1  dyz    Ryd( 3d)     0.00211       1.99575
    18    C    1  dx2y2  Ryd( 3d)     0.00375       2.52749
    19    C    1  dz2    Ryd( 3d)     0.00039       2.28452

    20    O    2  S      Cor( 1S)     1.99977     -18.89600
    21    O    2  S      Val( 2S)     1.70488      -0.92614
    22    O    2  S      Ryd( 3S)     0.00268       0.97140
    23    O    2  S      Ryd( 5S)     0.00018       2.64219
    24    O    2  S      Ryd( 4S)     0.00010       2.54606
    25    O    2  px     Val( 2p)     1.62111      -0.31717
    26    O    2  px     Ryd( 3p)     0.00124       0.86991
    27    O    2  px     Ryd( 4p)     0.00007       0.96500
    28    O    2  py     Val( 2p)     1.77198      -0.29137
    29    O    2  py     Ryd( 3p)     0.00289       0.75727
    30    O    2  py     Ryd( 4p)     0.00007       0.92959
    31    O    2  pz     Val( 2p)     1.44498      -0.27258
    32    O    2  pz     Ryd( 3p)     0.00081       0.69284
    33    O    2  pz     Ryd( 4p)     0.00003       0.79340
    34    O    2  dxy    Ryd( 3d)     0.00607       2.16632
    35    O    2  dxz    Ryd( 3d)     0.00425       1.82994
    36    O    2  dyz    Ryd( 3d)     0.00090       1.79602
    37    O    2  dx2y2  Ryd( 3d)     0.00544       2.07365
    38    O    2  dz2    Ryd( 3d)     0.00182       1.97723

    39    O    3  S      Cor( 1S)     1.99975     -19.02637
    40    O    3  S      Val( 2S)     1.67751      -0.95380
    41    O    3  S      Ryd( 3S)     0.00406       0.68666
    42    O    3  S      Ryd( 4S)     0.00035       1.38254
    43    O    3  S      Ryd( 5S)     0.00005       3.99360
    44    O    3  px     Val( 2p)     1.66338      -0.36656
    45    O    3  px     Ryd( 3p)     0.00310       0.74730
    46    O    3  px     Ryd( 4p)     0.00033       1.07134
    47    O    3  py     Val( 2p)     1.54319      -0.36874
    48    O    3  py     Ryd( 3p)     0.00275       0.60735
    49    O    3  py     Ryd( 4p)     0.00025       0.91281
    50    O    3  pz     Val( 2p)     1.80003      -0.35944
    51    O    3  pz     Ryd( 3p)     0.00258       0.44076
    52    O    3  pz     Ryd( 4p)     0.00016       0.93497
    53    O    3  dxy    Ryd( 3d)     0.00177       2.27915
    54    O    3  dxz    Ryd( 3d)     0.00118       1.86673
    55    O    3  dyz    Ryd( 3d)     0.00156       1.94854
    56    O    3  dx2y2  Ryd( 3d)     0.00168       2.76043
    57    O    3  dz2    Ryd( 3d)     0.00078       2.30502

    58    C    4  S      Cor( 1S)     1.99917     -10.18019
    59    C    4  S      Val( 2S)     1.16709      -0.39354
    60    C    4  S      Ryd( 4S)     0.00072       1.12189
    61    C    4  S      Ryd( 3S)     0.00048       0.81786
    62    C    4  S      Ryd( 5S)     0.00003       3.94927
    63    C    4  px     Val( 2p)     0.91892      -0.19874
    64    C    4  px     Ryd( 4p)     0.00390       0.48251
    65    C    4  px     Ryd( 3p)     0.00051       0.36975
    66    C    4  py     Val( 2p)     1.15022      -0.19450
    67    C    4  py     Ryd( 4p)     0.00226       0.48466
    68    C    4  py     Ryd( 3p)     0.00052       0.39691
    69    C    4  pz     Val( 2p)     1.31168      -0.18218
    70    C    4  pz     Ryd( 4p)     0.00137       0.57370
    71    C    4  pz     Ryd( 3p)     0.00020       0.38569
    72    C    4  dxy    Ryd( 3d)     0.00161       2.11301
    73    C    4  dxz    Ryd( 3d)     0.00061       1.84852
    74    C    4  dyz    Ryd( 3d)     0.00095       2.45745
    75    C    4  dx2y2  Ryd( 3d)     0.00082       2.12860
    76    C    4  dz2    Ryd( 3d)     0.00094       2.20426

    77    H    5  S      Val( 1S)     0.47234       0.09183
    78    H    5  S      Ryd( 2S)     0.00273       0.64694
    79    H    5  px     Ryd( 2p)     0.00126       3.02833
    80    H    5  py     Ryd( 2p)     0.00072       2.45743
    81    H    5  pz     Ryd( 2p)     0.00074       2.22852

    82    H    6  S      Val( 1S)     0.70376       0.03932
    83    H    6  S      Ryd( 2S)     0.00087       0.57140
    84    H    6  px     Ryd( 2p)     0.00010       2.25941
    85    H    6  py     Ryd( 2p)     0.00019       2.53733
    86    H    6  pz     Ryd( 2p)     0.00033       2.75538

    87   Cl    7  S      Cor( 1S)     2.00000    -100.31130
    88   Cl    7  S      Cor( 2S)     1.99984     -10.49829
    89   Cl    7  S      Val( 3S)     1.86889      -1.01268
    90   Cl    7  S      Ryd( 5S)     0.00227       0.69843
    91   Cl    7  S      Ryd( 4S)     0.00045       0.43620
    92   Cl    7  S      Ryd( 6S)     0.00000       4.25253
    93   Cl    7  px     Cor( 2p)     1.99995      -7.25378
    94   Cl    7  px     Val( 3p)     1.43854      -0.32186
    95   Cl    7  px     Ryd( 5p)     0.00241       0.42610
    96   Cl    7  px     Ryd( 4p)     0.00020       0.29168
    97   Cl    7  py     Cor( 2p)     1.99998      -7.25027
    98   Cl    7  py     Val( 3p)     1.75900      -0.34152
    99   Cl    7  py     Ryd( 5p)     0.00179       0.44049
   100   Cl    7  py     Ryd( 4p)     0.00008       0.30302
   101   Cl    7  pz     Cor( 2p)     1.99999      -7.24745
   102   Cl    7  pz     Val( 3p)     1.98342      -0.35376
   103   Cl    7  pz     Ryd( 5p)     0.00147       0.41697
   104   Cl    7  pz     Ryd( 4p)     0.00021       0.28701
   105   Cl    7  dxy    Ryd( 3d)     0.00382       1.03769
   106   Cl    7  dxz    Ryd( 3d)     0.00108       0.91277
   107   Cl    7  dyz    Ryd( 3d)     0.00040       0.85984
   108   Cl    7  dx2y2  Ryd( 3d)     0.00236       0.95606
   109   Cl    7  dz2    Ryd( 3d)     0.00168       0.91748

   110    H    8  S      Val( 1S)     0.70374       0.03933
   111    H    8  S      Ryd( 2S)     0.00087       0.57140
   112    H    8  px     Ryd( 2p)     0.00010       2.25942
   113    H    8  py     Ryd( 2p)     0.00019       2.53716
   114    H    8  pz     Ryd( 2p)     0.00033       2.75549

 WARNING:  Population inversion found on atom  C    1
           Population inversion found on atom  O    2
           Population inversion found on atom  C    4
           Population inversion found on atom Cl    7


 Summary of Natural Population Analysis:                  
                                                          
                                       Natural Population 
                Natural  -----------------------------------------------
    Atom  No    Charge         Core      Valence    Rydberg      Total
 -----------------------------------------------------------------------
      C    1    0.79185      1.99940     3.16439    0.04436     5.20815
      O    2   -0.56927      1.99977     6.54295    0.02655     8.56927
      O    3   -0.70447      1.99975     6.68412    0.02060     8.70447
      C    4   -0.56199      1.99917     4.54791    0.01492     6.56199
      H    5    0.52220      0.00000     0.47234    0.00545     0.47780
      H    6    0.29475      0.00000     0.70376    0.00149     0.70525
     Cl    7   -0.06783      9.99976     7.04985    0.01823    17.06783
      H    8    0.29477      0.00000     0.70374    0.00149     0.70523
 =======================================================================
   * Total *   -0.00000     17.99785    29.86906    0.13310    48.00000

                                 Natural Population      
 --------------------------------------------------------
   Core                      17.99785 ( 99.9880% of  18)
   Valence                   29.86906 ( 99.5635% of  30)
   Natural Minimal Basis     47.86690 ( 99.7227% of  48)
   Natural Rydberg Basis      0.13310 (  0.2773% of  48)
 --------------------------------------------------------

    Atom  No          Natural Electron Configuration
 ----------------------------------------------------------------------------
      C    1      [core]2S( 0.79)2p( 2.37)4S( 0.01)3d( 0.01)4p( 0.03)
      O    2      [core]2S( 1.70)2p( 4.84)3d( 0.02)
      O    3      [core]2S( 1.68)2p( 5.01)3p( 0.01)3d( 0.01)
      C    4      [core]2S( 1.17)2p( 3.38)4p( 0.01)
      H    5            1S( 0.47)
      H    6            1S( 0.70)
     Cl    7      [core]3S( 1.87)3p( 5.18)3d( 0.01)5p( 0.01)
      H    8            1S( 0.70)


 NBO analysis skipped by request.
 Leave Link  607 at Mon Feb 25 12:10:09 2019, MaxMem=   104857600 cpu:               0.6 elap:               0.8
 (Enter /opt/g16/l9999.exe)
 1\1\GINC-DYME\FOpt\RB3LYP\6-31+G(d,p)\C2H3Cl1O2\MONTOYA\25-Feb-2019\0\
 \#p B3LYP/6-31+G(d,p) Opt Pop=NPA\\acidocloroacetico\\0,1\C,-0.3495060
 325,1.6089736353,-0.1103717669\O,0.8570182094,1.6300176107,-0.10646187
 9\O,-1.0503118022,0.7459306015,-0.8599597437\C,-1.1083476125,2.6040194
 993,0.7713399842\H,-2.0059265304,0.8816817168,-0.7297210734\H,-0.81337
 55388,2.4417661536,1.8082200033\Cl,-2.9169818704,2.4881304733,0.690545
 8829\H,-0.8288088226,3.6142603095,0.4717885926\\Version=EM64L-G16RevB.
 01\State=1-A\HF=-688.687086\RMSD=1.673e-09\RMSF=8.563e-05\Dipole=-0.92
 91358,0.4971416,0.4474152\Quadrupole=-4.2520669,2.0765423,2.1755246,2.
 8789447,2.6090128,-0.6417045\PG=C01 [X(C2H3Cl1O2)]\\@


 OLD HORSE! OLD HORSE! WHAT BROUGHT YOU HERE?
 FROM SACARAP' TO PORTLAND PIER
 I'VE CARTED STONE THIS MANY A YEAR;
 TILL, KILLED BY BLOWS AND SORE ABUSE,
 THEY SALTED ME DOWN FOR SAILORS' USE.
 THE SAILORS THEY DO ME DESPISE;
 THEY TURN ME OVER AND DAMN MY EYES;
 CUT OFF MY MEAT, AND SCRAPE MY BONES,
 AND PITCH ME OVER TO DAVY JONES.

    SAILORS' COMPLAINT ABOUT THE BEEF
    SERVED ON SHIPBOARD, CIRCA 1835.
 Job cpu time:       0 days  0 hours  5 minutes  0.5 seconds.
 Elapsed time:       0 days  0 hours  5 minutes  2.0 seconds.
 File lengths (MBytes):  RWF=     22 Int=      0 D2E=      0 Chk=      3 Scr=      2
 Normal termination of Gaussian 16 at Mon Feb 25 12:10:09 2019.
