 Entering Gaussian System, Link 0=g16
 Input=HF.com
 Output=HF.log
 Initial command:
 /opt/g16/l1.exe "/home/montoya/Montoya/Moleculas/HF/Gau-3612.inp" -scrdir="/home/montoya/Montoya/Moleculas/HF/"
 Entering Link 1 = /opt/g16/l1.exe PID=      3614.
  
 Copyright (c) 1988-2017, Gaussian, Inc.  All Rights Reserved.
  
 This is part of the Gaussian(R) 16 program.  It is based on
 the Gaussian(R) 09 system (copyright 2009, Gaussian, Inc.),
 the Gaussian(R) 03 system (copyright 2003, Gaussian, Inc.),
 the Gaussian(R) 98 system (copyright 1998, Gaussian, Inc.),
 the Gaussian(R) 94 system (copyright 1995, Gaussian, Inc.),
 the Gaussian 92(TM) system (copyright 1992, Gaussian, Inc.),
 the Gaussian 90(TM) system (copyright 1990, Gaussian, Inc.),
 the Gaussian 88(TM) system (copyright 1988, Gaussian, Inc.),
 the Gaussian 86(TM) system (copyright 1986, Carnegie Mellon
 University), and the Gaussian 82(TM) system (copyright 1983,
 Carnegie Mellon University). Gaussian is a federally registered
 trademark of Gaussian, Inc.
  
 This software contains proprietary and confidential information,
 including trade secrets, belonging to Gaussian, Inc.
  
 This software is provided under written license and may be
 used, copied, transmitted, or stored only in accord with that
 written license.
  
 The following legend is applicable only to US Government
 contracts under FAR:
  
                    RESTRICTED RIGHTS LEGEND
  
 Use, reproduction and disclosure by the US Government is
 subject to restrictions as set forth in subparagraphs (a)
 and (c) of the Commercial Computer Software - Restricted
 Rights clause in FAR 52.227-19.
  
 Gaussian, Inc.
 340 Quinnipiac St., Bldg. 40, Wallingford CT 06492
  
  
 ---------------------------------------------------------------
 Warning -- This program may not be used in any manner that
 competes with the business of Gaussian, Inc. or will provide
 assistance to any competitor of Gaussian, Inc.  The licensee
 of this program is prohibited from giving any competitor of
 Gaussian, Inc. access to this program.  By using this program,
 the user acknowledges that Gaussian, Inc. is engaged in the
 business of creating and licensing software in the field of
 computational chemistry and represents and warrants to the
 licensee that it is not a competitor of Gaussian, Inc. and that
 it will not use this program in any manner prohibited above.
 ---------------------------------------------------------------
  

 Cite this work as:
 Gaussian 16, Revision B.01,
 M. J. Frisch, G. W. Trucks, H. B. Schlegel, G. E. Scuseria, 
 M. A. Robb, J. R. Cheeseman, G. Scalmani, V. Barone, 
 G. A. Petersson, H. Nakatsuji, X. Li, M. Caricato, A. V. Marenich, 
 J. Bloino, B. G. Janesko, R. Gomperts, B. Mennucci, H. P. Hratchian, 
 J. V. Ortiz, A. F. Izmaylov, J. L. Sonnenberg, D. Williams-Young, 
 F. Ding, F. Lipparini, F. Egidi, J. Goings, B. Peng, A. Petrone, 
 T. Henderson, D. Ranasinghe, V. G. Zakrzewski, J. Gao, N. Rega, 
 G. Zheng, W. Liang, M. Hada, M. Ehara, K. Toyota, R. Fukuda, 
 J. Hasegawa, M. Ishida, T. Nakajima, Y. Honda, O. Kitao, H. Nakai, 
 T. Vreven, K. Throssell, J. A. Montgomery, Jr., J. E. Peralta, 
 F. Ogliaro, M. J. Bearpark, J. J. Heyd, E. N. Brothers, K. N. Kudin, 
 V. N. Staroverov, T. A. Keith, R. Kobayashi, J. Normand, 
 K. Raghavachari, A. P. Rendell, J. C. Burant, S. S. Iyengar, 
 J. Tomasi, M. Cossi, J. M. Millam, M. Klene, C. Adamo, R. Cammi, 
 J. W. Ochterski, R. L. Martin, K. Morokuma, O. Farkas, 
 J. B. Foresman, and D. J. Fox, Gaussian, Inc., Wallingford CT, 2016.
 
 ******************************************
 Gaussian 16:  EM64L-G16RevB.01 20-Dec-2017
                11-Feb-2019 
 ******************************************
 %Chk=HF.chk
 --------------------------------
 #n B3LYP/6-31+G(d,p) Opt Pop=NPA
 --------------------------------
 1/18=20,19=15,26=3,38=1/1,3;
 2/9=110,12=2,17=6,18=5,40=1/2;
 3/5=1,6=6,7=111,11=2,25=1,30=1,71=1,74=-5/1,2,3;
 4//1;
 5/5=2,38=5/2;
 6/7=2,8=2,9=2,10=2,28=1,40=-1/1,7;
 7//1,2,3,16;
 1/18=20,19=15,26=3/3(2);
 2/9=110/2;
 99//99;
 2/9=110/2;
 3/5=1,6=6,7=111,11=2,25=1,30=1,71=1,74=-5/1,2,3;
 4/5=5,16=3,69=1/1;
 5/5=2,38=5/2;
 7//1,2,3,16;
 1/18=20,19=15,26=3/3(-5);
 2/9=110/2;
 6/7=2,8=2,9=2,10=2,19=2,28=1,40=-1/1,7;
 99/9=1/99;
 --
 HF
 --
 Symbolic Z-matrix:
 Charge =  0 Multiplicity = 1
 F                    -4.70694   1.32171  -0.28114 
 H                    -3.72143   1.32171  -0.28114 
 

 GradGradGradGradGradGradGradGradGradGradGradGradGradGradGradGradGradGrad
 Berny optimization.
 Initialization pass.
                           ----------------------------
                           !    Initial Parameters    !
                           ! (Angstroms and Degrees)  !
 --------------------------                            --------------------------
 ! Name  Definition              Value          Derivative Info.                !
 --------------------------------------------------------------------------------
 ! R1    R(1,2)                  0.9855         estimate D2E/DX2                !
 --------------------------------------------------------------------------------
 Trust Radius=3.00D-01 FncErr=1.00D-07 GrdErr=1.00D-06 EigMax=2.50D+02 EigMin=1.00D-04
 Number of steps in this run=     20 maximum allowed number of steps=    100.
 GradGradGradGradGradGradGradGradGradGradGradGradGradGradGradGradGradGrad

                          Input orientation:                          
 ---------------------------------------------------------------------
 Center     Atomic      Atomic             Coordinates (Angstroms)
 Number     Number       Type             X           Y           Z
 ---------------------------------------------------------------------
      1          9           0       -4.706940    1.321710   -0.281140
      2          1           0       -3.721430    1.321710   -0.281140
 ---------------------------------------------------------------------
 Stoichiometry    FH
 Framework group  C*V[C*(HF)]
 Deg. of freedom     1
 Full point group                 C*V     NOp   4
 Largest Abelian subgroup         C2V     NOp   4
 Largest concise Abelian subgroup C1      NOp   1
                         Standard orientation:                         
 ---------------------------------------------------------------------
 Center     Atomic      Atomic             Coordinates (Angstroms)
 Number     Number       Type             X           Y           Z
 ---------------------------------------------------------------------
      1          9           0        0.000000    0.000000    0.098551
      2          1           0        0.000000    0.000000   -0.886959
 ---------------------------------------------------------------------
 Rotational constants (GHZ):           0.0000000         543.6984617         543.6984617
 Standard basis: 6-31+G(d,p) (6D, 7F)
 There are    13 symmetry adapted cartesian basis functions of A1  symmetry.
 There are     1 symmetry adapted cartesian basis functions of A2  symmetry.
 There are     5 symmetry adapted cartesian basis functions of B1  symmetry.
 There are     5 symmetry adapted cartesian basis functions of B2  symmetry.
 There are    13 symmetry adapted basis functions of A1  symmetry.
 There are     1 symmetry adapted basis functions of A2  symmetry.
 There are     5 symmetry adapted basis functions of B1  symmetry.
 There are     5 symmetry adapted basis functions of B2  symmetry.
    24 basis functions,    39 primitive gaussians,    24 cartesian basis functions
     5 alpha electrons        5 beta electrons
       nuclear repulsion energy         4.8326195556 Hartrees.
 NAtoms=    2 NActive=    2 NUniq=    2 SFac= 1.00D+00 NAtFMM=   60 NAOKFM=F Big=F
 Integral buffers will be    131072 words long.
 Raffenetti 2 integral format.
 Two-electron integral symmetry is turned on.
 One-electron integrals computed using PRISM.
 NBasis=    24 RedAO= T EigKep=  7.16D-03  NBF=    13     1     5     5
 NBsUse=    24 1.00D-06 EigRej= -1.00D+00 NBFU=    13     1     5     5
 ExpMin= 1.08D-01 ExpMax= 7.00D+03 ExpMxC= 1.05D+03 IAcc=3 IRadAn=         5 AccDes= 0.00D+00
 Harris functional with IExCor=  402 and IRadAn=       5 diagonalized for initial guess.
 HarFok:  IExCor=  402 AccDes= 0.00D+00 IRadAn=         5 IDoV= 1 UseB2=F ITyADJ=14
 ICtDFT=  3500011 ScaDFX=  1.000000  1.000000  1.000000  1.000000
 FoFCou: FMM=F IPFlag=           0 FMFlag=      100000 FMFlg1=           0
         NFxFlg=           0 DoJE=T BraDBF=F KetDBF=T FulRan=T
         wScrn=  0.000000 ICntrl=       500 IOpCl=  0 I1Cent=   200000004 NGrid=           0
         NMat0=    1 NMatS0=      1 NMatT0=    0 NMatD0=    1 NMtDS0=    0 NMtDT0=    0
 Petite list used in FoFCou.
 Initial guess orbital symmetries:
       Occupied  (SG) (SG) (SG) (PI) (PI)
       Virtual   (SG) (SG) (PI) (PI) (SG) (SG) (PI) (PI) (SG) (PI)
                 (PI) (SG) (DLTA) (DLTA) (SG) (PI) (PI) (SG) (SG)
 The electronic state of the initial guess is 1-SG.
 Keep R1 ints in memory in symmetry-blocked form, NReq=910245.
 Requested convergence on RMS density matrix=1.00D-08 within 128 cycles.
 Requested convergence on MAX density matrix=1.00D-06.
 Requested convergence on             energy=1.00D-06.
 No special actions if energy rises.
 Integral accuracy reduced to 1.0D-05 until final iterations.
 Initial convergence to 1.0D-05 achieved.  Increase integral accuracy.
 SCF Done:  E(RB3LYP) =  -100.448263619     A.U. after    9 cycles
            NFock=  9  Conv=0.27D-08     -V/T= 2.0089

 **********************************************************************

            Population analysis using the SCF Density.

 **********************************************************************

 Orbital symmetries:
       Occupied  (SG) (SG) (SG) (PI) (PI)
       Virtual   (SG) (SG) (PI) (PI) (SG) (SG) (PI) (PI) (SG) (PI)
                 (PI) (SG) (DLTA) (DLTA) (SG) (PI) (PI) (SG) (SG)
 The electronic state is 1-SG.
 Alpha  occ. eigenvalues --  -24.71746  -1.19393  -0.54502  -0.41730  -0.41730
 Alpha virt. eigenvalues --    0.02161   0.18736   0.20155   0.20155   0.24638
 Alpha virt. eigenvalues --    0.85519   1.42817   1.42817   1.49833   1.60568
 Alpha virt. eigenvalues --    1.60568   1.62332   1.84094   1.84094   2.39464
 Alpha virt. eigenvalues --    2.61681   2.61681   3.55220   4.32567
          Condensed to atoms (all electrons):
               1          2
     1  F    9.198899   0.215229
     2  H    0.215229   0.370643
 Mulliken charges:
               1
     1  F   -0.414128
     2  H    0.414128
 Sum of Mulliken charges =   0.00000
 Mulliken charges with hydrogens summed into heavy atoms:
               1
     1  F    0.000000
 Electronic spatial extent (au):  <R**2>=             14.6759
 Charge=              0.0000 electrons
 Dipole moment (field-independent basis, Debye):
    X=              0.0000    Y=              0.0000    Z=             -2.0871  Tot=              2.0871
 Quadrupole moment (field-independent basis, Debye-Ang):
   XX=             -5.9863   YY=             -5.9863   ZZ=             -3.5683
   XY=              0.0000   XZ=             -0.0000   YZ=             -0.0000
 Traceless Quadrupole moment (field-independent basis, Debye-Ang):
   XX=             -0.8060   YY=             -0.8060   ZZ=              1.6120
   XY=              0.0000   XZ=             -0.0000   YZ=             -0.0000
 Octapole moment (field-independent basis, Debye-Ang**2):
  XXX=              0.0000  YYY=              0.0000  ZZZ=             -2.2292  XYY=              0.0000
  XXY=              0.0000  XXZ=             -0.2151  XZZ=              0.0000  YZZ=              0.0000
  YYZ=             -0.2151  XYZ=             -0.0000
 Hexadecapole moment (field-independent basis, Debye-Ang**3):
 XXXX=             -4.4924 YYYY=             -4.4924 ZZZZ=             -3.7909 XXXY=             -0.0000
 XXXZ=              0.0000 YYYX=             -0.0000 YYYZ=              0.0000 ZZZX=             -0.0000
 ZZZY=             -0.0000 XXYY=             -1.4975 XXZZ=             -1.6901 YYZZ=             -1.6901
 XXYZ=              0.0000 YYXZ=              0.0000 ZZXY=              0.0000
 N-N= 4.832619555641D+00 E-N=-2.492991773088D+02  KE= 9.956505618662D+01
 Symmetry A1   KE= 8.702364486013D+01
 Symmetry A2   KE= 2.751681265405D-51
 Symmetry B1   KE= 6.270705663247D+00
 Symmetry B2   KE= 6.270705663247D+00
 ******************************Gaussian NBO Version 3.1******************************
             N A T U R A L   A T O M I C   O R B I T A L   A N D
          N A T U R A L   B O N D   O R B I T A L   A N A L Y S I S
 ******************************Gaussian NBO Version 3.1******************************
       /RESON  / : Allow strongly delocalized NBO set

 Analyzing the SCF density

 Job title: HF                                                              

 Storage needed:      1944 in NPA ( 104857572 available)
 GSVD:  LWork=        -138 too small for GESVD, short by        1566 words or        1566 for optimal perf.


 NATURAL POPULATIONS:  Natural atomic orbital occupancies 
                                                          
   NAO  Atom  No  lang   Type(AO)    Occupancy      Energy
 ----------------------------------------------------------
     1    F    1  S      Cor( 1S)     1.99998     -24.56012
     2    F    1  S      Val( 2S)     1.92973      -1.25368
     3    F    1  S      Ryd( 4S)     0.00037       1.50661
     4    F    1  S      Ryd( 3S)     0.00000       0.52823
     5    F    1  S      Ryd( 5S)     0.00000       4.27022
     6    F    1  px     Val( 2p)     1.99774      -0.41515
     7    F    1  px     Ryd( 3p)     0.00013       0.77270
     8    F    1  px     Ryd( 4p)     0.00000       0.91263
     9    F    1  py     Val( 2p)     1.99774      -0.41515
    10    F    1  py     Ryd( 3p)     0.00013       0.77270
    11    F    1  py     Ryd( 4p)     0.00000       0.91263
    12    F    1  pz     Val( 2p)     1.65994      -0.41130
    13    F    1  pz     Ryd( 3p)     0.00067       0.79344
    14    F    1  pz     Ryd( 4p)     0.00000       1.12339
    15    F    1  dxy    Ryd( 3d)     0.00000       1.84094
    16    F    1  dxz    Ryd( 3d)     0.00129       1.96315
    17    F    1  dyz    Ryd( 3d)     0.00129       1.96315
    18    F    1  dx2y2  Ryd( 3d)     0.00000       1.84094
    19    F    1  dz2    Ryd( 3d)     0.00216       2.62362

    20    H    2  S      Val( 1S)     0.40614       0.10495
    21    H    2  S      Ryd( 2S)     0.00003       0.50679
    22    H    2  px     Ryd( 2p)     0.00084       2.20158
    23    H    2  py     Ryd( 2p)     0.00084       2.20158
    24    H    2  pz     Ryd( 2p)     0.00098       3.01612

 WARNING:  Population inversion found on atom  F    1


 Summary of Natural Population Analysis:                  
                                                          
                                       Natural Population 
                Natural  -----------------------------------------------
    Atom  No    Charge         Core      Valence    Rydberg      Total
 -----------------------------------------------------------------------
      F    1   -0.59118      1.99998     7.58515    0.00605     9.59118
      H    2    0.59118      0.00000     0.40614    0.00269     0.40882
 =======================================================================
   * Total *    0.00000      1.99998     7.99128    0.00874    10.00000

                                 Natural Population      
 --------------------------------------------------------
   Core                       1.99998 ( 99.9990% of   2)
   Valence                    7.99128 ( 99.8910% of   8)
   Natural Minimal Basis      9.99126 ( 99.9126% of  10)
   Natural Rydberg Basis      0.00874 (  0.0874% of  10)
 --------------------------------------------------------

    Atom  No          Natural Electron Configuration
 ----------------------------------------------------------------------------
      F    1      [core]2S( 1.93)2p( 5.66)
      H    2            1S( 0.41)


 NBO analysis skipped by request.
 Calling FoFJK, ICntrl=      2127 FMM=F ISym2X=1 I1Cent= 0 IOpClX= 0 NMat=1 NMatS=1 NMatT=0.
 ***** Axes restored to original set *****
 -------------------------------------------------------------------
 Center     Atomic                   Forces (Hartrees/Bohr)
 Number     Number              X              Y              Z
 -------------------------------------------------------------------
      1        9           0.053180738    0.000000000    0.000000000
      2        1          -0.053180738   -0.000000000   -0.000000000
 -------------------------------------------------------------------
 Cartesian Forces:  Max     0.053180738 RMS     0.030703914

 GradGradGradGradGradGradGradGradGradGradGradGradGradGradGradGradGradGrad
 Berny optimization.
 FormGI is forming the generalized inverse of G from B-inverse, IUseBI=4.
 Internal  Forces:  Max     0.053180738 RMS     0.053180738
 Search for a local minimum.
 Step number   1 out of a maximum of   20
 All quantities printed in internal units (Hartrees-Bohrs-Radians)
 Mixed Optimization -- RFO/linear search
 Second derivative matrix not updated -- first step.
 The second derivative matrix:
                          R1
           R1           0.50329
 ITU=  0
     Eigenvalues ---    0.50329
 RFO step:  Lambda=-5.55798700D-03 EMin= 5.03293678D-01
 Linear search not attempted -- first point.
 Iteration  1 RMS(Cart)=  0.07390063 RMS(Int)=  0.00000000
 Iteration  2 RMS(Cart)=  0.00000000 RMS(Int)=  0.00000000
 ClnCor:  largest displacement from symmetrization is 0.00D+00 for atom     0.
 Variable       Old X    -DE/DX   Delta X   Delta X   Delta X     New X
                                 (Linear)    (Quad)   (Total)
    R1        1.86234  -0.05318   0.00000  -0.10451  -0.10451   1.75783
         Item               Value     Threshold  Converged?
 Maximum Force            0.053181     0.000450     NO 
 RMS     Force            0.053181     0.000300     NO 
 Maximum Displacement     0.052256     0.001800     NO 
 RMS     Displacement     0.073901     0.001200     NO 
 Predicted change in Energy=-2.809347D-03
 GradGradGradGradGradGradGradGradGradGradGradGradGradGradGradGradGradGrad

                          Input orientation:                          
 ---------------------------------------------------------------------
 Center     Atomic      Atomic             Coordinates (Angstroms)
 Number     Number       Type             X           Y           Z
 ---------------------------------------------------------------------
      1          9           0       -4.679288    1.321710   -0.281140
      2          1           0       -3.749082    1.321710   -0.281140
 ---------------------------------------------------------------------
 Stoichiometry    FH
 Framework group  C*V[C*(HF)]
 Deg. of freedom     1
 Full point group                 C*V     NOp   4
 Largest Abelian subgroup         C2V     NOp   4
 Largest concise Abelian subgroup C1      NOp   1
                         Standard orientation:                         
 ---------------------------------------------------------------------
 Center     Atomic      Atomic             Coordinates (Angstroms)
 Number     Number       Type             X           Y           Z
 ---------------------------------------------------------------------
      1          9           0        0.000000    0.000000    0.093021
      2          1           0        0.000000    0.000000   -0.837185
 ---------------------------------------------------------------------
 Rotational constants (GHZ):           0.0000000         610.2711281         610.2711281
 Standard basis: 6-31+G(d,p) (6D, 7F)
 There are    13 symmetry adapted cartesian basis functions of A1  symmetry.
 There are     1 symmetry adapted cartesian basis functions of A2  symmetry.
 There are     5 symmetry adapted cartesian basis functions of B1  symmetry.
 There are     5 symmetry adapted cartesian basis functions of B2  symmetry.
 There are    13 symmetry adapted basis functions of A1  symmetry.
 There are     1 symmetry adapted basis functions of A2  symmetry.
 There are     5 symmetry adapted basis functions of B1  symmetry.
 There are     5 symmetry adapted basis functions of B2  symmetry.
    24 basis functions,    39 primitive gaussians,    24 cartesian basis functions
     5 alpha electrons        5 beta electrons
       nuclear repulsion energy         5.1199411234 Hartrees.
 NAtoms=    2 NActive=    2 NUniq=    2 SFac= 1.00D+00 NAtFMM=   60 NAOKFM=F Big=F
 Integral buffers will be    131072 words long.
 Raffenetti 2 integral format.
 Two-electron integral symmetry is turned on.
 One-electron integrals computed using PRISM.
 NBasis=    24 RedAO= T EigKep=  7.18D-03  NBF=    13     1     5     5
 NBsUse=    24 1.00D-06 EigRej= -1.00D+00 NBFU=    13     1     5     5
 Initial guess from the checkpoint file:  "HF.chk"
 B after Tr=    -0.000000   -0.000000   -0.000000
         Rot=    1.000000    0.000000    0.000000    0.000000 Ang=   0.00 deg.
 Initial guess orbital symmetries:
       Occupied  (SG) (SG) (SG) (PI) (PI)
       Virtual   (SG) (SG) (PI) (PI) (SG) (SG) (PI) (PI) (SG) (PI)
                 (PI) (SG) (DLTA) (DLTA) (SG) (PI) (PI) (SG) (SG)
 ExpMin= 1.08D-01 ExpMax= 7.00D+03 ExpMxC= 1.05D+03 IAcc=3 IRadAn=         5 AccDes= 0.00D+00
 Harris functional with IExCor=  402 and IRadAn=       5 diagonalized for initial guess.
 HarFok:  IExCor=  402 AccDes= 0.00D+00 IRadAn=         5 IDoV= 1 UseB2=F ITyADJ=14
 ICtDFT=  3500011 ScaDFX=  1.000000  1.000000  1.000000  1.000000
 FoFCou: FMM=F IPFlag=           0 FMFlag=      100000 FMFlg1=           0
         NFxFlg=           0 DoJE=T BraDBF=F KetDBF=T FulRan=T
         wScrn=  0.000000 ICntrl=       500 IOpCl=  0 I1Cent=   200000004 NGrid=           0
         NMat0=    1 NMatS0=      1 NMatT0=    0 NMatD0=    1 NMtDS0=    0 NMtDT0=    0
 Petite list used in FoFCou.
 Keep R1 ints in memory in symmetry-blocked form, NReq=910245.
 Requested convergence on RMS density matrix=1.00D-08 within 128 cycles.
 Requested convergence on MAX density matrix=1.00D-06.
 Requested convergence on             energy=1.00D-06.
 No special actions if energy rises.
 Integral accuracy reduced to 1.0D-05 until final iterations.
 Initial convergence to 1.0D-05 achieved.  Increase integral accuracy.
 SCF Done:  E(RB3LYP) =  -100.451363885     A.U. after    7 cycles
            NFock=  7  Conv=0.92D-08     -V/T= 2.0079
 Calling FoFJK, ICntrl=      2127 FMM=F ISym2X=1 I1Cent= 0 IOpClX= 0 NMat=1 NMatS=1 NMatT=0.
 ***** Axes restored to original set *****
 -------------------------------------------------------------------
 Center     Atomic                   Forces (Hartrees/Bohr)
 Number     Number              X              Y              Z
 -------------------------------------------------------------------
      1        9           0.002670333   -0.000000000   -0.000000000
      2        1          -0.002670333   -0.000000000   -0.000000000
 -------------------------------------------------------------------
 Cartesian Forces:  Max     0.002670333 RMS     0.001541717

 GradGradGradGradGradGradGradGradGradGradGradGradGradGradGradGradGradGrad
 Berny optimization.
 Using GEDIIS/GDIIS optimizer.
 Internal  Forces:  Max     0.002670333 RMS     0.002670333
 Search for a local minimum.
 Step number   2 out of a maximum of   20
 All quantities printed in internal units (Hartrees-Bohrs-Radians)
 Mixed Optimization -- RFO/linear search
 Update second derivatives using D2CorX and points    1    2
 DE= -3.10D-03 DEPred=-2.81D-03 R= 1.10D+00
 TightC=F SS=  1.41D+00  RLast= 1.05D-01 DXNew= 5.0454D-01 3.1353D-01
 Trust test= 1.10D+00 RLast= 1.05D-01 DXMaxT set to 3.14D-01
 The second derivative matrix:
                          R1
           R1           0.48330
 ITU=  1  0
 Use linear search instead of GDIIS.
     Eigenvalues ---    0.48330
 RFO step:  Lambda= 0.00000000D+00 EMin= 4.83300999D-01
 Quartic linear search produced a step of  0.04321.
 Iteration  1 RMS(Cart)=  0.00319304 RMS(Int)=  0.00000000
 Iteration  2 RMS(Cart)=  0.00000000 RMS(Int)=  0.00000000
 ClnCor:  largest displacement from symmetrization is 0.00D+00 for atom     0.
 Variable       Old X    -DE/DX   Delta X   Delta X   Delta X     New X
                                 (Linear)    (Quad)   (Total)
    R1        1.75783  -0.00267  -0.00452  -0.00000  -0.00452   1.75332
         Item               Value     Threshold  Converged?
 Maximum Force            0.002670     0.000450     NO 
 RMS     Force            0.002670     0.000300     NO 
 Maximum Displacement     0.002258     0.001800     NO 
 RMS     Displacement     0.003193     0.001200     NO 
 Predicted change in Energy=-7.130763D-06
 GradGradGradGradGradGradGradGradGradGradGradGradGradGradGradGradGradGrad

                          Input orientation:                          
 ---------------------------------------------------------------------
 Center     Atomic      Atomic             Coordinates (Angstroms)
 Number     Number       Type             X           Y           Z
 ---------------------------------------------------------------------
      1          9           0       -4.678093    1.321710   -0.281140
      2          1           0       -3.750277    1.321710   -0.281140
 ---------------------------------------------------------------------
 Stoichiometry    FH
 Framework group  C*V[C*(HF)]
 Deg. of freedom     1
 Full point group                 C*V     NOp   4
 Largest Abelian subgroup         C2V     NOp   4
 Largest concise Abelian subgroup C1      NOp   1
                         Standard orientation:                         
 ---------------------------------------------------------------------
 Center     Atomic      Atomic             Coordinates (Angstroms)
 Number     Number       Type             X           Y           Z
 ---------------------------------------------------------------------
      1          9           0        0.000000    0.000000    0.092782
      2          1           0        0.000000    0.000000   -0.835034
 ---------------------------------------------------------------------
 Rotational constants (GHZ):           0.0000000         613.4186604         613.4186604
 Standard basis: 6-31+G(d,p) (6D, 7F)
 There are    13 symmetry adapted cartesian basis functions of A1  symmetry.
 There are     1 symmetry adapted cartesian basis functions of A2  symmetry.
 There are     5 symmetry adapted cartesian basis functions of B1  symmetry.
 There are     5 symmetry adapted cartesian basis functions of B2  symmetry.
 There are    13 symmetry adapted basis functions of A1  symmetry.
 There are     1 symmetry adapted basis functions of A2  symmetry.
 There are     5 symmetry adapted basis functions of B1  symmetry.
 There are     5 symmetry adapted basis functions of B2  symmetry.
    24 basis functions,    39 primitive gaussians,    24 cartesian basis functions
     5 alpha electrons        5 beta electrons
       nuclear repulsion energy         5.1331274384 Hartrees.
 NAtoms=    2 NActive=    2 NUniq=    2 SFac= 1.00D+00 NAtFMM=   60 NAOKFM=F Big=F
 Integral buffers will be    131072 words long.
 Raffenetti 2 integral format.
 Two-electron integral symmetry is turned on.
 One-electron integrals computed using PRISM.
 NBasis=    24 RedAO= T EigKep=  7.18D-03  NBF=    13     1     5     5
 NBsUse=    24 1.00D-06 EigRej= -1.00D+00 NBFU=    13     1     5     5
 Initial guess from the checkpoint file:  "HF.chk"
 B after Tr=     0.000000    0.000000   -0.000000
         Rot=    1.000000    0.000000    0.000000    0.000000 Ang=   0.00 deg.
 Initial guess orbital symmetries:
       Occupied  (SG) (SG) (SG) (PI) (PI)
       Virtual   (SG) (SG) (PI) (PI) (SG) (SG) (PI) (PI) (SG) (PI)
                 (PI) (SG) (DLTA) (DLTA) (SG) (PI) (PI) (SG) (SG)
 Keep R1 ints in memory in symmetry-blocked form, NReq=910245.
 Requested convergence on RMS density matrix=1.00D-08 within 128 cycles.
 Requested convergence on MAX density matrix=1.00D-06.
 Requested convergence on             energy=1.00D-06.
 No special actions if energy rises.
 SCF Done:  E(RB3LYP) =  -100.451369897     A.U. after    6 cycles
            NFock=  6  Conv=0.37D-08     -V/T= 2.0079
 Calling FoFJK, ICntrl=      2127 FMM=F ISym2X=1 I1Cent= 0 IOpClX= 0 NMat=1 NMatS=1 NMatT=0.
 ***** Axes restored to original set *****
 -------------------------------------------------------------------
 Center     Atomic                   Forces (Hartrees/Bohr)
 Number     Number              X              Y              Z
 -------------------------------------------------------------------
      1        9          -0.000015514   -0.000000000   -0.000000000
      2        1           0.000015514   -0.000000000   -0.000000000
 -------------------------------------------------------------------
 Cartesian Forces:  Max     0.000015514 RMS     0.000008957

 GradGradGradGradGradGradGradGradGradGradGradGradGradGradGradGradGradGrad
 Berny optimization.
 Using GEDIIS/GDIIS optimizer.
 Internal  Forces:  Max     0.000015514 RMS     0.000015514
 Search for a local minimum.
 Step number   3 out of a maximum of   20
 All quantities printed in internal units (Hartrees-Bohrs-Radians)
 Mixed Optimization -- En-DIIS/RFO-DIIS
 Update second derivatives using D2CorX and points    2    3
 DE= -6.01D-06 DEPred=-7.13D-06 R= 8.43D-01
 TightC=F SS=  1.41D+00  RLast= 4.52D-03 DXNew= 5.2730D-01 1.3547D-02
 Trust test= 8.43D-01 RLast= 4.52D-03 DXMaxT set to 3.14D-01
 The second derivative matrix:
                          R1
           R1           0.59479
 ITU=  1  1
 Use linear search instead of GDIIS.
     Eigenvalues ---    0.59479
 RFO step:  Lambda= 0.00000000D+00 EMin= 5.94788091D-01
 Quartic linear search produced a step of -0.00573.
 Iteration  1 RMS(Cart)=  0.00001828 RMS(Int)=  0.00000000
 Iteration  2 RMS(Cart)=  0.00000000 RMS(Int)=  0.00000000
 ClnCor:  largest displacement from symmetrization is 0.00D+00 for atom     0.
 Variable       Old X    -DE/DX   Delta X   Delta X   Delta X     New X
                                 (Linear)    (Quad)   (Total)
    R1        1.75332   0.00002   0.00003   0.00000   0.00003   1.75334
         Item               Value     Threshold  Converged?
 Maximum Force            0.000016     0.000450     YES
 RMS     Force            0.000016     0.000300     YES
 Maximum Displacement     0.000013     0.001800     YES
 RMS     Displacement     0.000018     0.001200     YES
 Predicted change in Energy=-2.023066D-10
 Optimization completed.
    -- Stationary point found.
                           ----------------------------
                           !   Optimized Parameters   !
                           ! (Angstroms and Degrees)  !
 --------------------------                            --------------------------
 ! Name  Definition              Value          Derivative Info.                !
 --------------------------------------------------------------------------------
 ! R1    R(1,2)                  0.9278         -DE/DX =    0.0                 !
 --------------------------------------------------------------------------------
 GradGradGradGradGradGradGradGradGradGradGradGradGradGradGradGradGradGrad

                          Input orientation:                          
 ---------------------------------------------------------------------
 Center     Atomic      Atomic             Coordinates (Angstroms)
 Number     Number       Type             X           Y           Z
 ---------------------------------------------------------------------
      1          9           0       -4.678093    1.321710   -0.281140
      2          1           0       -3.750277    1.321710   -0.281140
 ---------------------------------------------------------------------
 Stoichiometry    FH
 Framework group  C*V[C*(HF)]
 Deg. of freedom     1
 Full point group                 C*V     NOp   4
 Largest Abelian subgroup         C2V     NOp   4
 Largest concise Abelian subgroup C1      NOp   1
                         Standard orientation:                         
 ---------------------------------------------------------------------
 Center     Atomic      Atomic             Coordinates (Angstroms)
 Number     Number       Type             X           Y           Z
 ---------------------------------------------------------------------
      1          9           0        0.000000    0.000000    0.092782
      2          1           0        0.000000    0.000000   -0.835034
 ---------------------------------------------------------------------
 Rotational constants (GHZ):           0.0000000         613.4186604         613.4186604

 **********************************************************************

            Population analysis using the SCF Density.

 **********************************************************************

 Orbital symmetries:
       Occupied  (SG) (SG) (SG) (PI) (PI)
       Virtual   (SG) (SG) (PI) (PI) (SG) (SG) (PI) (PI) (SG) (PI)
                 (PI) (SG) (DLTA) (DLTA) (SG) (PI) (PI) (SG) (SG)
 The electronic state is 1-SG.
 Alpha  occ. eigenvalues --  -24.71680  -1.21105  -0.55785  -0.42232  -0.42232
 Alpha virt. eigenvalues --    0.04094   0.18994   0.20092   0.20092   0.25033
 Alpha virt. eigenvalues --    0.90550   1.43226   1.43226   1.47679   1.60564
 Alpha virt. eigenvalues --    1.60564   1.60827   1.83591   1.83591   2.52803
 Alpha virt. eigenvalues --    2.68914   2.68914   3.61192   4.35598
          Condensed to atoms (all electrons):
               1          2
     1  F    9.172079   0.228365
     2  H    0.228365   0.371191
 Mulliken charges:
               1
     1  F   -0.400444
     2  H    0.400444
 Sum of Mulliken charges =  -0.00000
 Mulliken charges with hydrogens summed into heavy atoms:
               1
     1  F   -0.000000
 Electronic spatial extent (au):  <R**2>=             14.3525
 Charge=             -0.0000 electrons
 Dipole moment (field-independent basis, Debye):
    X=              0.0000    Y=              0.0000    Z=             -1.9947  Tot=              1.9947
 Quadrupole moment (field-independent basis, Debye-Ang):
   XX=             -5.9260   YY=             -5.9260   ZZ=             -3.7313
   XY=              0.0000   XZ=              0.0000   YZ=              0.0000
 Traceless Quadrupole moment (field-independent basis, Debye-Ang):
   XX=             -0.7316   YY=             -0.7316   ZZ=              1.4631
   XY=              0.0000   XZ=              0.0000   YZ=              0.0000
 Octapole moment (field-independent basis, Debye-Ang**2):
  XXX=              0.0000  YYY=              0.0000  ZZZ=             -1.9923  XYY=              0.0000
  XXY=              0.0000  XXZ=             -0.2337  XZZ=              0.0000  YZZ=              0.0000
  YYZ=             -0.2337  XYZ=              0.0000
 Hexadecapole moment (field-independent basis, Debye-Ang**3):
 XXXX=             -4.4067 YYYY=             -4.4067 ZZZZ=             -3.7619 XXXY=              0.0000
 XXXZ=              0.0000 YYYX=              0.0000 YYYZ=              0.0000 ZZZX=              0.0000
 ZZZY=              0.0000 XXYY=             -1.4689 XXZZ=             -1.6071 YYZZ=             -1.6071
 XXYZ=              0.0000 YYXZ=              0.0000 ZZXY=              0.0000
 N-N= 5.133127438354D+00 E-N=-2.499125022847D+02  KE= 9.966445889604D+01
 Symmetry A1   KE= 8.712201511329D+01
 Symmetry A2   KE= 0.000000000000D+00
 Symmetry B1   KE= 6.271221891378D+00
 Symmetry B2   KE= 6.271221891378D+00
 ******************************Gaussian NBO Version 3.1******************************
             N A T U R A L   A T O M I C   O R B I T A L   A N D
          N A T U R A L   B O N D   O R B I T A L   A N A L Y S I S
 ******************************Gaussian NBO Version 3.1******************************
       /RESON  / : Allow strongly delocalized NBO set

 Analyzing the SCF density

 Job title: HF                                                              

 Storage needed:      1944 in NPA ( 104857572 available)
 GSVD:  LWork=        -138 too small for GESVD, short by        1566 words or        1566 for optimal perf.


 NATURAL POPULATIONS:  Natural atomic orbital occupancies 
                                                          
   NAO  Atom  No  lang   Type(AO)    Occupancy      Energy
 ----------------------------------------------------------
     1    F    1  S      Cor( 1S)     1.99997     -24.54336
     2    F    1  S      Val( 2S)     1.91560      -1.25983
     3    F    1  S      Ryd( 4S)     0.00049       1.53788
     4    F    1  S      Ryd( 3S)     0.00000       0.59908
     5    F    1  S      Ryd( 5S)     0.00000       4.17434
     6    F    1  px     Val( 2p)     1.99728      -0.41972
     7    F    1  px     Ryd( 4p)     0.00019       0.91906
     8    F    1  px     Ryd( 3p)     0.00000       0.76204
     9    F    1  py     Val( 2p)     1.99728      -0.41972
    10    F    1  py     Ryd( 4p)     0.00019       0.91906
    11    F    1  py     Ryd( 3p)     0.00000       0.76204
    12    F    1  pz     Val( 2p)     1.66411      -0.40896
    13    F    1  pz     Ryd( 3p)     0.00097       0.94051
    14    F    1  pz     Ryd( 4p)     0.00000       0.95828
    15    F    1  dxy    Ryd( 3d)     0.00000       1.83591
    16    F    1  dxz    Ryd( 3d)     0.00148       1.98917
    17    F    1  dyz    Ryd( 3d)     0.00148       1.98917
    18    F    1  dx2y2  Ryd( 3d)     0.00000       1.83591
    19    F    1  dz2    Ryd( 3d)     0.00222       2.70689

    20    H    2  S      Val( 1S)     0.41548       0.17661
    21    H    2  S      Ryd( 2S)     0.00003       0.46640
    22    H    2  px     Ryd( 2p)     0.00105       2.25508
    23    H    2  py     Ryd( 2p)     0.00105       2.25508
    24    H    2  pz     Ryd( 2p)     0.00112       3.13417

 WARNING:  Population inversion found on atom  F    1


 Summary of Natural Population Analysis:                  
                                                          
                                       Natural Population 
                Natural  -----------------------------------------------
    Atom  No    Charge         Core      Valence    Rydberg      Total
 -----------------------------------------------------------------------
      F    1   -0.58127      1.99997     7.57428    0.00702     9.58127
      H    2    0.58127      0.00000     0.41548    0.00325     0.41873
 =======================================================================
   * Total *   -0.00000      1.99997     7.98976    0.01026    10.00000

                                 Natural Population      
 --------------------------------------------------------
   Core                       1.99997 ( 99.9987% of   2)
   Valence                    7.98976 ( 99.8720% of   8)
   Natural Minimal Basis      9.98974 ( 99.8974% of  10)
   Natural Rydberg Basis      0.01026 (  0.1026% of  10)
 --------------------------------------------------------

    Atom  No          Natural Electron Configuration
 ----------------------------------------------------------------------------
      F    1      [core]2S( 1.92)2p( 5.66)3d( 0.01)
      H    2            1S( 0.42)


 NBO analysis skipped by request.
 1\1\GINC-DYME\FOpt\RB3LYP\6-31+G(d,p)\F1H1\MONTOYA\11-Feb-2019\0\\#n B
 3LYP/6-31+G(d,p) Opt Pop=NPA\\HF\\0,1\F,-4.6780927205,1.32171,-0.28114
 \H,-3.7502772795,1.32171,-0.28114\\Version=EM64L-G16RevB.01\State=1-SG
 \HF=-100.4513699\RMSD=3.718e-09\RMSF=8.957e-06\Dipole=0.7847838,0.,0.\
 Quadrupole=1.0877964,-0.5438982,-0.5438982,0.,0.,0.\PG=C*V [C*(H1F1)]\
 \@


 Mondays are the potholes in the road of life.
                                -- Tom Wilson
 Job cpu time:       0 days  0 hours  0 minutes  7.4 seconds.
 Elapsed time:       0 days  0 hours  0 minutes  7.8 seconds.
 File lengths (MBytes):  RWF=     17 Int=      0 D2E=      0 Chk=      2 Scr=      2
 Normal termination of Gaussian 16 at Mon Feb 11 12:13:02 2019.
