 Entering Gaussian System, Link 0=g16
 Input=acidoacetico.com
 Output=acidoacetico.log
 Initial command:
 /opt/g16/l1.exe "/home/montoya/Montoya/EfectoInductivo/Acidoacetico/Gau-14207.inp" -scrdir="/home/montoya/Montoya/EfectoInductivo/Acidoacetico/"
 Entering Link 1 = /opt/g16/l1.exe PID=     14209.
  
 Copyright (c) 1988-2017, Gaussian, Inc.  All Rights Reserved.
  
 This is part of the Gaussian(R) 16 program.  It is based on
 the Gaussian(R) 09 system (copyright 2009, Gaussian, Inc.),
 the Gaussian(R) 03 system (copyright 2003, Gaussian, Inc.),
 the Gaussian(R) 98 system (copyright 1998, Gaussian, Inc.),
 the Gaussian(R) 94 system (copyright 1995, Gaussian, Inc.),
 the Gaussian 92(TM) system (copyright 1992, Gaussian, Inc.),
 the Gaussian 90(TM) system (copyright 1990, Gaussian, Inc.),
 the Gaussian 88(TM) system (copyright 1988, Gaussian, Inc.),
 the Gaussian 86(TM) system (copyright 1986, Carnegie Mellon
 University), and the Gaussian 82(TM) system (copyright 1983,
 Carnegie Mellon University). Gaussian is a federally registered
 trademark of Gaussian, Inc.
  
 This software contains proprietary and confidential information,
 including trade secrets, belonging to Gaussian, Inc.
  
 This software is provided under written license and may be
 used, copied, transmitted, or stored only in accord with that
 written license.
  
 The following legend is applicable only to US Government
 contracts under FAR:
  
                    RESTRICTED RIGHTS LEGEND
  
 Use, reproduction and disclosure by the US Government is
 subject to restrictions as set forth in subparagraphs (a)
 and (c) of the Commercial Computer Software - Restricted
 Rights clause in FAR 52.227-19.
  
 Gaussian, Inc.
 340 Quinnipiac St., Bldg. 40, Wallingford CT 06492
  
  
 ---------------------------------------------------------------
 Warning -- This program may not be used in any manner that
 competes with the business of Gaussian, Inc. or will provide
 assistance to any competitor of Gaussian, Inc.  The licensee
 of this program is prohibited from giving any competitor of
 Gaussian, Inc. access to this program.  By using this program,
 the user acknowledges that Gaussian, Inc. is engaged in the
 business of creating and licensing software in the field of
 computational chemistry and represents and warrants to the
 licensee that it is not a competitor of Gaussian, Inc. and that
 it will not use this program in any manner prohibited above.
 ---------------------------------------------------------------
  

 Cite this work as:
 Gaussian 16, Revision B.01,
 M. J. Frisch, G. W. Trucks, H. B. Schlegel, G. E. Scuseria, 
 M. A. Robb, J. R. Cheeseman, G. Scalmani, V. Barone, 
 G. A. Petersson, H. Nakatsuji, X. Li, M. Caricato, A. V. Marenich, 
 J. Bloino, B. G. Janesko, R. Gomperts, B. Mennucci, H. P. Hratchian, 
 J. V. Ortiz, A. F. Izmaylov, J. L. Sonnenberg, D. Williams-Young, 
 F. Ding, F. Lipparini, F. Egidi, J. Goings, B. Peng, A. Petrone, 
 T. Henderson, D. Ranasinghe, V. G. Zakrzewski, J. Gao, N. Rega, 
 G. Zheng, W. Liang, M. Hada, M. Ehara, K. Toyota, R. Fukuda, 
 J. Hasegawa, M. Ishida, T. Nakajima, Y. Honda, O. Kitao, H. Nakai, 
 T. Vreven, K. Throssell, J. A. Montgomery, Jr., J. E. Peralta, 
 F. Ogliaro, M. J. Bearpark, J. J. Heyd, E. N. Brothers, K. N. Kudin, 
 V. N. Staroverov, T. A. Keith, R. Kobayashi, J. Normand, 
 K. Raghavachari, A. P. Rendell, J. C. Burant, S. S. Iyengar, 
 J. Tomasi, M. Cossi, J. M. Millam, M. Klene, C. Adamo, R. Cammi, 
 J. W. Ochterski, R. L. Martin, K. Morokuma, O. Farkas, 
 J. B. Foresman, and D. J. Fox, Gaussian, Inc., Wallingford CT, 2016.
 
 ******************************************
 Gaussian 16:  EM64L-G16RevB.01 20-Dec-2017
                18-Feb-2019 
 ******************************************
 %Chk=acidoacetico.chk
 --------------------------------
 #n B3LYP/6-31+G(d,p) Opt Pop=NPA
 --------------------------------
 1/18=20,19=15,26=3,38=1/1,3;
 2/9=110,12=2,17=6,18=5,40=1/2;
 3/5=1,6=6,7=111,11=2,25=1,30=1,71=1,74=-5/1,2,3;
 4//1;
 5/5=2,38=5/2;
 6/7=2,8=2,9=2,10=2,28=1,40=-1/1,7;
 7//1,2,3,16;
 1/18=20,19=15,26=3/3(2);
 2/9=110/2;
 99//99;
 2/9=110/2;
 3/5=1,6=6,7=111,11=2,25=1,30=1,71=1,74=-5/1,2,3;
 4/5=5,16=3,69=1/1;
 5/5=2,38=5/2;
 7//1,2,3,16;
 1/18=20,19=15,26=3/3(-5);
 2/9=110/2;
 6/7=2,8=2,9=2,10=2,19=2,28=1,40=-1/1,7;
 99/9=1/99;
 ------------
 acidoacetico
 ------------
 Symbolic Z-matrix:
 Charge =  0 Multiplicity = 1
 C                    -3.43025   2.02383  -0.33522 
 C                    -1.96901   1.96303  -0.00464 
 O                    -3.98833   3.10684  -0.4043 
 O                    -4.13754   0.89521  -0.5577 
 H                    -1.39027   2.5188   -0.77184 
 H                    -1.61055   0.91269   0.0206 
 H                    -1.79278   2.42377   0.9899 
 H                    -3.7249    0.02154  -0.51056 
 

 GradGradGradGradGradGradGradGradGradGradGradGradGradGradGradGradGradGrad
 Berny optimization.
 Initialization pass.
                           ----------------------------
                           !    Initial Parameters    !
                           ! (Angstroms and Degrees)  !
 --------------------------                            --------------------------
 ! Name  Definition              Value          Derivative Info.                !
 --------------------------------------------------------------------------------
 ! R1    R(1,2)                  1.4994         estimate D2E/DX2                !
 ! R2    R(1,3)                  1.2203         estimate D2E/DX2                !
 ! R3    R(1,4)                  1.3504         estimate D2E/DX2                !
 ! R4    R(2,5)                  1.1101         estimate D2E/DX2                !
 ! R5    R(2,6)                  1.1101         estimate D2E/DX2                !
 ! R6    R(2,7)                  1.1102         estimate D2E/DX2                !
 ! R7    R(4,8)                  0.9674         estimate D2E/DX2                !
 ! A1    A(2,1,3)              119.6143         estimate D2E/DX2                !
 ! A2    A(2,1,4)              120.8554         estimate D2E/DX2                !
 ! A3    A(3,1,4)              119.5304         estimate D2E/DX2                !
 ! A4    A(1,2,5)              109.596          estimate D2E/DX2                !
 ! A5    A(1,2,6)              110.9815         estimate D2E/DX2                !
 ! A6    A(1,2,7)              109.5961         estimate D2E/DX2                !
 ! A7    A(5,2,6)              108.7265         estimate D2E/DX2                !
 ! A8    A(5,2,7)              109.1827         estimate D2E/DX2                !
 ! A9    A(6,2,7)              108.7264         estimate D2E/DX2                !
 ! A10   A(1,4,8)              121.5592         estimate D2E/DX2                !
 ! D1    D(3,1,2,5)            -59.9001         estimate D2E/DX2                !
 ! D2    D(3,1,2,6)            179.9997         estimate D2E/DX2                !
 ! D3    D(3,1,2,7)             59.8994         estimate D2E/DX2                !
 ! D4    D(4,1,2,5)            120.1004         estimate D2E/DX2                !
 ! D5    D(4,1,2,6)              0.0001         estimate D2E/DX2                !
 ! D6    D(4,1,2,7)           -120.1001         estimate D2E/DX2                !
 ! D7    D(2,1,4,8)             -0.0007         estimate D2E/DX2                !
 ! D8    D(3,1,4,8)            179.9997         estimate D2E/DX2                !
 --------------------------------------------------------------------------------
 Trust Radius=3.00D-01 FncErr=1.00D-07 GrdErr=1.00D-06 EigMax=2.50D+02 EigMin=1.00D-04
 Number of steps in this run=     35 maximum allowed number of steps=    100.
 GradGradGradGradGradGradGradGradGradGradGradGradGradGradGradGradGradGrad

                          Input orientation:                          
 ---------------------------------------------------------------------
 Center     Atomic      Atomic             Coordinates (Angstroms)
 Number     Number       Type             X           Y           Z
 ---------------------------------------------------------------------
      1          6           0       -3.430250    2.023830   -0.335220
      2          6           0       -1.969010    1.963030   -0.004640
      3          8           0       -3.988330    3.106840   -0.404300
      4          8           0       -4.137540    0.895210   -0.557700
      5          1           0       -1.390270    2.518800   -0.771840
      6          1           0       -1.610550    0.912690    0.020600
      7          1           0       -1.792780    2.423770    0.989900
      8          1           0       -3.724900    0.021540   -0.510560
 ---------------------------------------------------------------------
                    Distance matrix (angstroms):
                    1          2          3          4          5
     1  C    0.000000
     2  C    1.499401   0.000000
     3  O    1.220302   2.354927   0.000000
     4  O    1.350385   2.479645   2.221959   0.000000
     5  H    2.144097   1.110142   2.689013   3.198342   0.000000
     6  H    2.161608   1.110110   3.263230   2.592376   1.804459
     7  H    2.144109   1.110157   2.689018   3.198353   1.809633
     8  H    2.031435   2.666175   3.098348   0.967364   3.428567
                    6          7          8
     6  H    0.000000
     7  H    1.804470   0.000000
     8  H    2.355155   3.428582   0.000000
 Stoichiometry    C2H4O2
 Framework group  C1[X(C2H4O2)]
 Deg. of freedom    18
 Full point group                 C1      NOp   1
 Largest Abelian subgroup         C1      NOp   1
 Largest concise Abelian subgroup C1      NOp   1
                         Standard orientation:                         
 ---------------------------------------------------------------------
 Center     Atomic      Atomic             Coordinates (Angstroms)
 Number     Number       Type             X           Y           Z
 ---------------------------------------------------------------------
      1          6           0       -0.088870    0.124695   -0.000003
      2          6           0        1.321888   -0.383206   -0.000001
      3          8           0       -0.296879    1.327138    0.000000
      4          8           0       -1.133184   -0.731429    0.000002
      5          1           0        1.849872   -0.015831   -0.904813
      6          1           0        1.344779   -1.493080    0.000002
      7          1           0        1.849881   -0.015823    0.904820
      8          1           0       -1.002139   -1.689875   -0.000004
 ---------------------------------------------------------------------
 Rotational constants (GHZ):          11.1695894           9.3302266           5.2582650
 Standard basis: 6-31+G(d,p) (6D, 7F)
 There are    96 symmetry adapted cartesian basis functions of A   symmetry.
 There are    96 symmetry adapted basis functions of A   symmetry.
    96 basis functions,   156 primitive gaussians,    96 cartesian basis functions
    16 alpha electrons       16 beta electrons
       nuclear repulsion energy       120.2476356457 Hartrees.
 NAtoms=    8 NActive=    8 NUniq=    8 SFac= 1.00D+00 NAtFMM=   60 NAOKFM=F Big=F
 Integral buffers will be    131072 words long.
 Raffenetti 2 integral format.
 Two-electron integral symmetry is turned on.
 One-electron integrals computed using PRISM.
 NBasis=    96 RedAO= T EigKep=  2.02D-04  NBF=    96
 NBsUse=    96 1.00D-06 EigRej= -1.00D+00 NBFU=    96
 ExpMin= 4.38D-02 ExpMax= 5.48D+03 ExpMxC= 8.25D+02 IAcc=3 IRadAn=         5 AccDes= 0.00D+00
 Harris functional with IExCor=  402 and IRadAn=       5 diagonalized for initial guess.
 HarFok:  IExCor=  402 AccDes= 0.00D+00 IRadAn=         5 IDoV= 1 UseB2=F ITyADJ=14
 ICtDFT=  3500011 ScaDFX=  1.000000  1.000000  1.000000  1.000000
 FoFCou: FMM=F IPFlag=           0 FMFlag=      100000 FMFlg1=           0
         NFxFlg=           0 DoJE=T BraDBF=F KetDBF=T FulRan=T
         wScrn=  0.000000 ICntrl=       500 IOpCl=  0 I1Cent=   200000004 NGrid=           0
         NMat0=    1 NMatS0=      1 NMatT0=    0 NMatD0=    1 NMtDS0=    0 NMtDT0=    0
 Petite list used in FoFCou.
 Keep R1 ints in memory in canonical form, NReq=11764689.
 Requested convergence on RMS density matrix=1.00D-08 within 128 cycles.
 Requested convergence on MAX density matrix=1.00D-06.
 Requested convergence on             energy=1.00D-06.
 No special actions if energy rises.
 SCF Done:  E(RB3LYP) =  -229.090661039     A.U. after   11 cycles
            NFock= 11  Conv=0.70D-08     -V/T= 2.0096

 **********************************************************************

            Population analysis using the SCF Density.

 **********************************************************************

 Orbital symmetries:
       Occupied  (A) (A) (A) (A) (A) (A) (A) (A) (A) (A) (A) (A)
                 (A) (A) (A) (A)
       Virtual   (A) (A) (A) (A) (A) (A) (A) (A) (A) (A) (A) (A)
                 (A) (A) (A) (A) (A) (A) (A) (A) (A) (A) (A) (A)
                 (A) (A) (A) (A) (A) (A) (A) (A) (A) (A) (A) (A)
                 (A) (A) (A) (A) (A) (A) (A) (A) (A) (A) (A) (A)
                 (A) (A) (A) (A) (A) (A) (A) (A) (A) (A) (A) (A)
                 (A) (A) (A) (A) (A) (A) (A) (A) (A) (A) (A) (A)
                 (A) (A) (A) (A) (A) (A) (A) (A)
 The electronic state is 1-A.
 Alpha  occ. eigenvalues --  -19.21780 -19.14666 -10.33873 -10.22266  -1.11379
 Alpha  occ. eigenvalues --   -1.02652  -0.76518  -0.65236  -0.52343  -0.48002
 Alpha  occ. eigenvalues --   -0.47144  -0.42384  -0.40812  -0.38228  -0.32708
 Alpha  occ. eigenvalues --   -0.28323
 Alpha virt. eigenvalues --   -0.01715  -0.01207   0.02142   0.04578   0.04609
 Alpha virt. eigenvalues --    0.06779   0.07929   0.09000   0.11465   0.13290
 Alpha virt. eigenvalues --    0.15789   0.17163   0.19692   0.22243   0.22470
 Alpha virt. eigenvalues --    0.23602   0.27543   0.28650   0.28887   0.30761
 Alpha virt. eigenvalues --    0.31587   0.35892   0.37991   0.43882   0.62371
 Alpha virt. eigenvalues --    0.62553   0.66602   0.69409   0.76214   0.79049
 Alpha virt. eigenvalues --    0.89002   0.92904   0.94887   1.04273   1.08513
 Alpha virt. eigenvalues --    1.09596   1.12814   1.22587   1.23142   1.28006
 Alpha virt. eigenvalues --    1.30450   1.33066   1.40923   1.42486   1.46582
 Alpha virt. eigenvalues --    1.53361   1.57031   1.71895   1.74256   1.75276
 Alpha virt. eigenvalues --    1.82100   1.86230   1.93875   2.00052   2.00740
 Alpha virt. eigenvalues --    2.04557   2.10423   2.19305   2.21484   2.29652
 Alpha virt. eigenvalues --    2.34965   2.42318   2.48562   2.59823   2.63394
 Alpha virt. eigenvalues --    2.66319   2.68153   2.79402   2.82552   2.97847
 Alpha virt. eigenvalues --    3.00695   3.16759   3.20719   3.36378   3.38850
 Alpha virt. eigenvalues --    3.52130   4.21009   4.27700   4.34999   4.58929
          Condensed to atoms (all electrons):
               1          2          3          4          5          6
     1  C    4.840801   0.269445   0.454548   0.101469  -0.014912  -0.068437
     2  C    0.269445   5.226448  -0.131792  -0.112932   0.381287   0.397045
     3  O    0.454548  -0.131792   8.214390  -0.107827  -0.009391   0.009157
     4  O    0.101469  -0.112932  -0.107827   8.360024   0.001953   0.006648
     5  H   -0.014912   0.381287  -0.009391   0.001953   0.489233  -0.027843
     6  H   -0.068437   0.397045   0.009157   0.006648  -0.027843   0.582601
     7  H   -0.014911   0.381285  -0.009391   0.001953  -0.016250  -0.027842
     8  H    0.019998  -0.000807   0.009743   0.196691   0.000200  -0.000086
               7          8
     1  C   -0.014911   0.019998
     2  C    0.381285  -0.000807
     3  O   -0.009391   0.009743
     4  O    0.001953   0.196691
     5  H   -0.016250   0.000200
     6  H   -0.027842  -0.000086
     7  H    0.489235   0.000200
     8  H    0.000200   0.418863
 Mulliken charges:
               1
     1  C    0.411998
     2  C   -0.409979
     3  O   -0.429436
     4  O   -0.447979
     5  H    0.195721
     6  H    0.128756
     7  H    0.195720
     8  H    0.355197
 Sum of Mulliken charges =  -0.00000
 Mulliken charges with hydrogens summed into heavy atoms:
               1
     1  C    0.411998
     2  C    0.110219
     3  O   -0.429436
     4  O   -0.092781
 Electronic spatial extent (au):  <R**2>=            257.8541
 Charge=             -0.0000 electrons
 Dipole moment (field-independent basis, Debye):
    X=              2.1346    Y=             -4.1508    Z=             -0.0000  Tot=              4.6676
 Quadrupole moment (field-independent basis, Debye-Ang):
   XX=            -24.6828   YY=            -23.8645   ZZ=            -23.3690
   XY=              2.2149   XZ=              0.0000   YZ=              0.0000
 Traceless Quadrupole moment (field-independent basis, Debye-Ang):
   XX=             -0.7107   YY=              0.1076   ZZ=              0.6030
   XY=              2.2149   XZ=              0.0000   YZ=              0.0000
 Octapole moment (field-independent basis, Debye-Ang**2):
  XXX=              0.9717  YYY=            -16.2525  ZZZ=             -0.0000  XYY=             -5.0096
  XXY=             -0.9324  XXZ=              0.0000  XZZ=              0.1562  YZZ=              0.5972
  YYZ=             -0.0000  XYZ=             -0.0000
 Hexadecapole moment (field-independent basis, Debye-Ang**3):
 XXXX=           -170.2374 YYYY=           -114.7315 ZZZZ=            -29.0835 XXXY=              6.3076
 XXXZ=              0.0000 YYYX=             13.8810 YYYZ=              0.0001 ZZZX=             -0.0000
 ZZZY=              0.0000 XXYY=            -46.2318 XXZZ=            -30.6304 YYZZ=            -26.7546
 XXYZ=              0.0001 YYXZ=              0.0000 ZZXY=              1.7010
 N-N= 1.202476356457D+02 E-N=-7.769063915166D+02  KE= 2.269102069186D+02
 ******************************Gaussian NBO Version 3.1******************************
             N A T U R A L   A T O M I C   O R B I T A L   A N D
          N A T U R A L   B O N D   O R B I T A L   A N A L Y S I S
 ******************************Gaussian NBO Version 3.1******************************
       /RESON  / : Allow strongly delocalized NBO set

 Analyzing the SCF density

 Job title: acidoacetico                                                    

 Storage needed:     28152 in NPA ( 104857200 available)
 GSVD:  LWork=        4422 too small for GESVD, short by        4743 words or        4743 for optimal perf.


 NATURAL POPULATIONS:  Natural atomic orbital occupancies 
                                                          
   NAO  Atom  No  lang   Type(AO)    Occupancy      Energy
 ----------------------------------------------------------
     1    C    1  S      Cor( 1S)     1.99942     -10.22241
     2    C    1  S      Val( 2S)     0.80293      -0.19382
     3    C    1  S      Ryd( 4S)     0.00471       1.43123
     4    C    1  S      Ryd( 3S)     0.00044       0.30412
     5    C    1  S      Ryd( 5S)     0.00024       3.51931
     6    C    1  px     Val( 2p)     0.85806      -0.05942
     7    C    1  px     Ryd( 4p)     0.00930       0.74759
     8    C    1  px     Ryd( 3p)     0.00087       0.33561
     9    C    1  py     Val( 2p)     0.74435      -0.01483
    10    C    1  py     Ryd( 4p)     0.01372       0.64631
    11    C    1  py     Ryd( 3p)     0.00054       0.27368
    12    C    1  pz     Val( 2p)     0.75575      -0.13852
    13    C    1  pz     Ryd( 4p)     0.00230       0.56442
    14    C    1  pz     Ryd( 3p)     0.00030       0.21812
    15    C    1  dxy    Ryd( 3d)     0.00404       2.57261
    16    C    1  dxz    Ryd( 3d)     0.00106       1.92051
    17    C    1  dyz    Ryd( 3d)     0.00206       2.22835
    18    C    1  dx2y2  Ryd( 3d)     0.00204       2.57763
    19    C    1  dz2    Ryd( 3d)     0.00038       2.31278

    20    C    2  S      Cor( 1S)     1.99937     -10.09473
    21    C    2  S      Val( 2S)     1.15007      -0.32118
    22    C    2  S      Ryd( 4S)     0.00044       1.21695
    23    C    2  S      Ryd( 3S)     0.00009       0.50380
    24    C    2  S      Ryd( 5S)     0.00001       4.27049
    25    C    2  px     Val( 2p)     1.13571      -0.13536
    26    C    2  px     Ryd( 4p)     0.00086       0.38330
    27    C    2  px     Ryd( 3p)     0.00025       0.34505
    28    C    2  py     Val( 2p)     1.23196      -0.12612
    29    C    2  py     Ryd( 4p)     0.00232       0.52562
    30    C    2  py     Ryd( 3p)     0.00007       0.44517
    31    C    2  pz     Val( 2p)     1.27998      -0.13434
    32    C    2  pz     Ryd( 4p)     0.00080       0.46694
    33    C    2  pz     Ryd( 3p)     0.00014       0.40341
    34    C    2  dxy    Ryd( 3d)     0.00033       2.23222
    35    C    2  dxz    Ryd( 3d)     0.00047       2.28141
    36    C    2  dyz    Ryd( 3d)     0.00039       2.13918
    37    C    2  dx2y2  Ryd( 3d)     0.00098       2.42428
    38    C    2  dz2    Ryd( 3d)     0.00066       2.34324

    39    O    3  S      Cor( 1S)     1.99978     -18.87820
    40    O    3  S      Val( 2S)     1.71126      -0.90487
    41    O    3  S      Ryd( 3S)     0.00227       0.88131
    42    O    3  S      Ryd( 4S)     0.00022       1.94737
    43    O    3  S      Ryd( 5S)     0.00007       3.33422
    44    O    3  px     Val( 2p)     1.84263      -0.26058
    45    O    3  px     Ryd( 3p)     0.00342       0.71844
    46    O    3  px     Ryd( 4p)     0.00006       0.98441
    47    O    3  py     Val( 2p)     1.56962      -0.30116
    48    O    3  py     Ryd( 3p)     0.00044       0.84186
    49    O    3  py     Ryd( 4p)     0.00010       1.01926
    50    O    3  pz     Val( 2p)     1.43975      -0.25027
    51    O    3  pz     Ryd( 3p)     0.00078       0.65795
    52    O    3  pz     Ryd( 4p)     0.00004       0.84728
    53    O    3  dxy    Ryd( 3d)     0.00504       2.03495
    54    O    3  dxz    Ryd( 3d)     0.00025       1.80453
    55    O    3  dyz    Ryd( 3d)     0.00453       1.86079
    56    O    3  dx2y2  Ryd( 3d)     0.00561       2.24628
    57    O    3  dz2    Ryd( 3d)     0.00172       1.99321

    58    O    4  S      Cor( 1S)     1.99974     -19.02763
    59    O    4  S      Val( 2S)     1.66486      -0.92920
    60    O    4  S      Ryd( 3S)     0.00239       0.98879
    61    O    4  S      Ryd( 4S)     0.00037       1.12856
    62    O    4  S      Ryd( 5S)     0.00004       3.98207
    63    O    4  px     Val( 2p)     1.72514      -0.36214
    64    O    4  px     Ryd( 3p)     0.00247       0.53510
    65    O    4  px     Ryd( 4p)     0.00012       0.99505
    66    O    4  py     Val( 2p)     1.50348      -0.34627
    67    O    4  py     Ryd( 3p)     0.00365       0.83782
    68    O    4  py     Ryd( 4p)     0.00035       1.08919
    69    O    4  pz     Val( 2p)     1.82035      -0.35072
    70    O    4  pz     Ryd( 3p)     0.00220       0.42969
    71    O    4  pz     Ryd( 4p)     0.00008       0.94688
    72    O    4  dxy    Ryd( 3d)     0.00137       2.54104
    73    O    4  dxz    Ryd( 3d)     0.00210       1.87307
    74    O    4  dyz    Ryd( 3d)     0.00020       1.95114
    75    O    4  dx2y2  Ryd( 3d)     0.00159       2.52110
    76    O    4  dz2    Ryd( 3d)     0.00079       2.26823

    77    H    5  S      Val( 1S)     0.71654       0.05196
    78    H    5  S      Ryd( 2S)     0.00042       0.62382
    79    H    5  px     Ryd( 2p)     0.00016       2.45220
    80    H    5  py     Ryd( 2p)     0.00012       2.36471
    81    H    5  pz     Ryd( 2p)     0.00028       2.74712

    82    H    6  S      Val( 1S)     0.76396       0.02699
    83    H    6  S      Ryd( 2S)     0.00080       0.63559
    84    H    6  px     Ryd( 2p)     0.00009       2.28432
    85    H    6  py     Ryd( 2p)     0.00040       2.96826
    86    H    6  pz     Ryd( 2p)     0.00007       2.27552

    87    H    7  S      Val( 1S)     0.71654       0.05195
    88    H    7  S      Ryd( 2S)     0.00042       0.62382
    89    H    7  px     Ryd( 2p)     0.00016       2.45219
    90    H    7  py     Ryd( 2p)     0.00012       2.36470
    91    H    7  pz     Ryd( 2p)     0.00028       2.74709

    92    H    8  S      Val( 1S)     0.46938       0.11114
    93    H    8  S      Ryd( 2S)     0.00136       0.61191
    94    H    8  px     Ryd( 2p)     0.00059       2.37578
    95    H    8  py     Ryd( 2p)     0.00121       3.07104
    96    H    8  pz     Ryd( 2p)     0.00075       2.23759

 WARNING:  Population inversion found on atom  C    1
           Population inversion found on atom  C    2


 Summary of Natural Population Analysis:                  
                                                          
                                       Natural Population 
                Natural  -----------------------------------------------
    Atom  No    Charge         Core      Valence    Rydberg      Total
 -----------------------------------------------------------------------
      C    1    0.79747      1.99942     3.16110    0.04201     5.20253
      C    2   -0.80490      1.99937     4.79771    0.00782     6.80490
      O    3   -0.58762      1.99978     6.56327    0.02457     8.58762
      O    4   -0.73131      1.99974     6.71383    0.01774     8.73131
      H    5    0.28248      0.00000     0.71654    0.00097     0.71752
      H    6    0.23467      0.00000     0.76396    0.00136     0.76533
      H    7    0.28248      0.00000     0.71654    0.00097     0.71752
      H    8    0.52671      0.00000     0.46938    0.00391     0.47329
 =======================================================================
   * Total *   -0.00000      7.99831    23.90234    0.09935    32.00000

                                 Natural Population      
 --------------------------------------------------------
   Core                       7.99831 ( 99.9789% of   8)
   Valence                   23.90234 ( 99.5931% of  24)
   Natural Minimal Basis     31.90065 ( 99.6895% of  32)
   Natural Rydberg Basis      0.09935 (  0.3105% of  32)
 --------------------------------------------------------

    Atom  No          Natural Electron Configuration
 ----------------------------------------------------------------------------
      C    1      [core]2S( 0.80)2p( 2.36)3d( 0.01)4p( 0.03)
      C    2      [core]2S( 1.15)2p( 3.65)
      O    3      [core]2S( 1.71)2p( 4.85)3d( 0.02)
      O    4      [core]2S( 1.66)2p( 5.05)3p( 0.01)3d( 0.01)
      H    5            1S( 0.72)
      H    6            1S( 0.76)
      H    7            1S( 0.72)
      H    8            1S( 0.47)


 NBO analysis skipped by request.
 Calling FoFJK, ICntrl=      2127 FMM=F ISym2X=0 I1Cent= 0 IOpClX= 0 NMat=1 NMatS=1 NMatT=0.
 ***** Axes restored to original set *****
 -------------------------------------------------------------------
 Center     Atomic                   Forces (Hartrees/Bohr)
 Number     Number              X              Y              Z
 -------------------------------------------------------------------
      1        6          -0.004583363    0.028289405    0.000480154
      2        6           0.016091116   -0.017854033    0.002719553
      3        8          -0.000224157   -0.017921955   -0.001018471
      4        8          -0.016032909   -0.002535226   -0.003800106
      5        1          -0.006497356   -0.004168445    0.008532095
      6        1           0.001682206    0.009789544    0.000912514
      7        1          -0.002063669   -0.003124851   -0.010888461
      8        1           0.011628133    0.007525561    0.003062721
 -------------------------------------------------------------------
 Cartesian Forces:  Max     0.028289405 RMS     0.010353173

 GradGradGradGradGradGradGradGradGradGradGradGradGradGradGradGradGradGrad
 Berny optimization.
 FormGI is forming the generalized inverse of G from B-inverse, IUseBI=4.
 Internal  Forces:  Max     0.025747509 RMS     0.008713366
 Search for a local minimum.
 Step number   1 out of a maximum of   35
 All quantities printed in internal units (Hartrees-Bohrs-Radians)
 Mixed Optimization -- RFO/linear search
 Second derivative matrix not updated -- first step.
 ITU=  0
     Eigenvalues ---    0.00774   0.01167   0.02348   0.07354   0.07497
     Eigenvalues ---    0.16000   0.16000   0.16000   0.16000   0.25000
     Eigenvalues ---    0.25000   0.32440   0.32583   0.32585   0.32588
     Eigenvalues ---    0.53919   0.54940   0.95250
 RFO step:  Lambda=-8.02580025D-03 EMin= 7.73876638D-03
 Linear search not attempted -- first point.
 Iteration  1 RMS(Cart)=  0.06863467 RMS(Int)=  0.00468603
 Iteration  2 RMS(Cart)=  0.00410788 RMS(Int)=  0.00018279
 Iteration  3 RMS(Cart)=  0.00001432 RMS(Int)=  0.00018256
 Iteration  4 RMS(Cart)=  0.00000000 RMS(Int)=  0.00018256
 Variable       Old X    -DE/DX   Delta X   Delta X   Delta X     New X
                                 (Linear)    (Quad)   (Total)
    R1        2.83346   0.00988   0.00000   0.02973   0.02973   2.86318
    R2        2.30604  -0.01575   0.00000  -0.01639  -0.01639   2.28964
    R3        2.55186  -0.00174   0.00000  -0.00313  -0.00313   2.54873
    R4        2.09787  -0.01137   0.00000  -0.03406  -0.03406   2.06381
    R5        2.09780  -0.00870   0.00000  -0.02605  -0.02605   2.07175
    R6        2.09789  -0.01138   0.00000  -0.03408  -0.03408   2.06381
    R7        1.82805  -0.00169   0.00000  -0.00308  -0.00308   1.82497
    A1        2.08766   0.01634   0.00000   0.06332   0.06332   2.15099
    A2        2.10932  -0.01279   0.00000  -0.04958  -0.04958   2.05975
    A3        2.08620  -0.00355   0.00000  -0.01375  -0.01375   2.07245
    A4        1.91281  -0.00232   0.00000  -0.01762  -0.01797   1.89484
    A5        1.93699   0.00861   0.00000   0.05901   0.05889   1.99588
    A6        1.91281  -0.00232   0.00000  -0.01763  -0.01797   1.89484
    A7        1.89763  -0.00160   0.00000  -0.00190  -0.00202   1.89562
    A8        1.90560  -0.00087   0.00000  -0.02081  -0.02142   1.88417
    A9        1.89763  -0.00160   0.00000  -0.00190  -0.00202   1.89562
   A10        2.12161  -0.02575   0.00000  -0.15324  -0.15324   1.96837
    D1       -1.04545   0.00196   0.00000   0.02360   0.02339  -1.02207
    D2        3.14159   0.00000   0.00000   0.00001   0.00001  -3.14159
    D3        1.04544  -0.00196   0.00000  -0.02357  -0.02336   1.02208
    D4        2.09615   0.00196   0.00000   0.02358   0.02337   2.11952
    D5        0.00000  -0.00000   0.00000  -0.00001  -0.00001  -0.00001
    D6       -2.09614  -0.00196   0.00000  -0.02359  -0.02338  -2.11952
    D7       -0.00001   0.00000   0.00000   0.00001   0.00001  -0.00000
    D8        3.14159  -0.00000   0.00000  -0.00001  -0.00001   3.14158
         Item               Value     Threshold  Converged?
 Maximum Force            0.025748     0.000450     NO 
 RMS     Force            0.008713     0.000300     NO 
 Maximum Displacement     0.221291     0.001800     NO 
 RMS     Displacement     0.069914     0.001200     NO 
 Predicted change in Energy=-4.174748D-03
 GradGradGradGradGradGradGradGradGradGradGradGradGradGradGradGradGradGrad

                          Input orientation:                          
 ---------------------------------------------------------------------
 Center     Atomic      Atomic             Coordinates (Angstroms)
 Number     Number       Type             X           Y           Z
 ---------------------------------------------------------------------
      1          6           0       -3.453964    2.046287   -0.339420
      2          6           0       -1.980361    1.923005   -0.009391
      3          8           0       -4.031271    3.108923   -0.414001
      4          8           0       -4.150796    0.912735   -0.559784
      5          1           0       -1.409091    2.478563   -0.756206
      6          1           0       -1.608319    0.892156    0.020004
      7          1           0       -1.802031    2.385785    0.963625
      8          1           0       -3.607798    0.118255   -0.478587
 ---------------------------------------------------------------------
                    Distance matrix (angstroms):
                    1          2          3          4          5
     1  C    0.000000
     2  C    1.515131   0.000000
     3  O    1.211627   2.403402   0.000000
     4  O    1.348731   2.456494   2.204264   0.000000
     5  H    2.131216   1.092121   2.718508   3.163439   0.000000
     6  H    2.206265   1.096325   3.312568   2.607827   1.777324
     7  H    2.131213   1.092121   2.718510   3.163440   1.766587
     8  H    1.939160   2.475039   3.021191   0.965732   3.237659
                    6          7          8
     6  H    0.000000
     7  H    1.777322   0.000000
     8  H    2.201234   3.237664   0.000000
 Stoichiometry    C2H4O2
 Framework group  C1[X(C2H4O2)]
 Deg. of freedom    18
 Full point group                 C1      NOp   1
 Largest Abelian subgroup         C1      NOp   1
 Largest concise Abelian subgroup C1      NOp   1
                         Standard orientation:                         
 ---------------------------------------------------------------------
 Center     Atomic      Atomic             Coordinates (Angstroms)
 Number     Number       Type             X           Y           Z
 ---------------------------------------------------------------------
      1          6           0       -0.115771    0.125733    0.000003
      2          6           0        1.373708   -0.151892   -0.000001
      3          8           0       -0.583037    1.243634   -0.000001
      4          8           0       -0.956720   -0.928725    0.000000
      5          1           0        1.814500    0.315250   -0.883295
      6          1           0        1.635171   -1.216582    0.000001
      7          1           0        1.814502    0.315251    0.883292
      8          1           0       -0.493729   -1.776237   -0.000006
 ---------------------------------------------------------------------
 Rotational constants (GHZ):          11.1437518           9.4175730           5.2715561
 Standard basis: 6-31+G(d,p) (6D, 7F)
 There are    96 symmetry adapted cartesian basis functions of A   symmetry.
 There are    96 symmetry adapted basis functions of A   symmetry.
    96 basis functions,   156 primitive gaussians,    96 cartesian basis functions
    16 alpha electrons       16 beta electrons
       nuclear repulsion energy       120.6324141504 Hartrees.
 NAtoms=    8 NActive=    8 NUniq=    8 SFac= 1.00D+00 NAtFMM=   60 NAOKFM=F Big=F
 Integral buffers will be    131072 words long.
 Raffenetti 2 integral format.
 Two-electron integral symmetry is turned on.
 One-electron integrals computed using PRISM.
 NBasis=    96 RedAO= T EigKep=  2.10D-04  NBF=    96
 NBsUse=    96 1.00D-06 EigRej= -1.00D+00 NBFU=    96
 Initial guess from the checkpoint file:  "acidoacetico.chk"
 B after Tr=     0.000000   -0.000000   -0.000000
         Rot=    0.995007   -0.000000    0.000000   -0.099802 Ang= -11.46 deg.
 ExpMin= 4.38D-02 ExpMax= 5.48D+03 ExpMxC= 8.25D+02 IAcc=3 IRadAn=         5 AccDes= 0.00D+00
 Harris functional with IExCor=  402 and IRadAn=       5 diagonalized for initial guess.
 HarFok:  IExCor=  402 AccDes= 0.00D+00 IRadAn=         5 IDoV= 1 UseB2=F ITyADJ=14
 ICtDFT=  3500011 ScaDFX=  1.000000  1.000000  1.000000  1.000000
 FoFCou: FMM=F IPFlag=           0 FMFlag=      100000 FMFlg1=           0
         NFxFlg=           0 DoJE=T BraDBF=F KetDBF=T FulRan=T
         wScrn=  0.000000 ICntrl=       500 IOpCl=  0 I1Cent=   200000004 NGrid=           0
         NMat0=    1 NMatS0=      1 NMatT0=    0 NMatD0=    1 NMtDS0=    0 NMtDT0=    0
 Petite list used in FoFCou.
 Keep R1 ints in memory in canonical form, NReq=11764689.
 Requested convergence on RMS density matrix=1.00D-08 within 128 cycles.
 Requested convergence on MAX density matrix=1.00D-06.
 Requested convergence on             energy=1.00D-06.
 No special actions if energy rises.
 SCF Done:  E(RB3LYP) =  -229.095103723     A.U. after   10 cycles
            NFock= 10  Conv=0.71D-08     -V/T= 2.0092
 Calling FoFJK, ICntrl=      2127 FMM=F ISym2X=0 I1Cent= 0 IOpClX= 0 NMat=1 NMatS=1 NMatT=0.
 ***** Axes restored to original set *****
 -------------------------------------------------------------------
 Center     Atomic                   Forces (Hartrees/Bohr)
 Number     Number              X              Y              Z
 -------------------------------------------------------------------
      1        6          -0.003193241    0.013510236   -0.000002511
      2        6           0.001850292   -0.004168454    0.000198647
      3        8           0.004973282   -0.003589592    0.000943348
      4        8          -0.005433668   -0.008794308   -0.001715617
      5        1           0.000267932    0.001015613   -0.000076279
      6        1          -0.001044550    0.001180997   -0.000175026
      7        1           0.000184954    0.000996016    0.000288193
      8        1           0.002394999   -0.000150508    0.000539244
 -------------------------------------------------------------------
 Cartesian Forces:  Max     0.013510236 RMS     0.003940512

 GradGradGradGradGradGradGradGradGradGradGradGradGradGradGradGradGradGrad
 Berny optimization.
 Using GEDIIS/GDIIS optimizer.
 FormGI is forming the generalized inverse of G from B-inverse, IUseBI=4.
 Internal  Forces:  Max     0.009279888 RMS     0.002689579
 Search for a local minimum.
 Step number   2 out of a maximum of   35
 All quantities printed in internal units (Hartrees-Bohrs-Radians)
 Mixed Optimization -- RFO/linear search
 Update second derivatives using D2CorX and points    1    2
 DE= -4.44D-03 DEPred=-4.17D-03 R= 1.06D+00
 TightC=F SS=  1.41D+00  RLast= 2.03D-01 DXNew= 5.0454D-01 6.0802D-01
 Trust test= 1.06D+00 RLast= 2.03D-01 DXMaxT set to 5.05D-01
 ITU=  1  0
 Use linear search instead of GDIIS.
     Eigenvalues ---    0.00774   0.01140   0.02348   0.06953   0.07605
     Eigenvalues ---    0.14233   0.16000   0.16000   0.16259   0.23738
     Eigenvalues ---    0.26859   0.32123   0.32527   0.32584   0.33457
     Eigenvalues ---    0.53948   0.57436   0.93632
 RFO step:  Lambda=-4.82328050D-04 EMin= 7.73876638D-03
 Quartic linear search produced a step of  0.08584.
 Iteration  1 RMS(Cart)=  0.01696488 RMS(Int)=  0.00032497
 Iteration  2 RMS(Cart)=  0.00028708 RMS(Int)=  0.00001971
 Iteration  3 RMS(Cart)=  0.00000007 RMS(Int)=  0.00001971
 Variable       Old X    -DE/DX   Delta X   Delta X   Delta X     New X
                                 (Linear)    (Quad)   (Total)
    R1        2.86318   0.00135   0.00255   0.00359   0.00614   2.86932
    R2        2.28964  -0.00558  -0.00141  -0.00590  -0.00731   2.28234
    R3        2.54873   0.00928  -0.00027   0.01841   0.01814   2.56688
    R4        2.06381   0.00071  -0.00292   0.00343   0.00051   2.06432
    R5        2.07175  -0.00147  -0.00224  -0.00407  -0.00630   2.06545
    R6        2.06381   0.00071  -0.00293   0.00343   0.00051   2.06432
    R7        1.82497   0.00152  -0.00026   0.00314   0.00287   1.82784
    A1        2.15099  -0.00117   0.00544  -0.00720  -0.00176   2.14922
    A2        2.05975  -0.00389  -0.00426  -0.01519  -0.01945   2.04030
    A3        2.07245   0.00506  -0.00118   0.02239   0.02121   2.09367
    A4        1.89484  -0.00003  -0.00154  -0.00021  -0.00179   1.89305
    A5        1.99588  -0.00062   0.00506  -0.00508  -0.00004   1.99585
    A6        1.89484  -0.00003  -0.00154  -0.00021  -0.00179   1.89305
    A7        1.89562   0.00059  -0.00017   0.00537   0.00519   1.90080
    A8        1.88417  -0.00050  -0.00184  -0.00543  -0.00734   1.87684
    A9        1.89562   0.00059  -0.00017   0.00537   0.00519   1.90080
   A10        1.96837  -0.00353  -0.01315  -0.01816  -0.03131   1.93706
    D1       -1.02207   0.00032   0.00201   0.00332   0.00530  -1.01677
    D2       -3.14159  -0.00000   0.00000  -0.00003  -0.00003   3.14157
    D3        1.02208  -0.00032  -0.00201  -0.00338  -0.00536   1.01672
    D4        2.11952   0.00032   0.00201   0.00337   0.00535   2.12487
    D5       -0.00001   0.00000  -0.00000   0.00003   0.00003   0.00002
    D6       -2.11952  -0.00032  -0.00201  -0.00332  -0.00531  -2.12483
    D7       -0.00000  -0.00000   0.00000  -0.00002  -0.00002  -0.00002
    D8        3.14158   0.00000  -0.00000   0.00003   0.00003  -3.14157
         Item               Value     Threshold  Converged?
 Maximum Force            0.009280     0.000450     NO 
 RMS     Force            0.002690     0.000300     NO 
 Maximum Displacement     0.060202     0.001800     NO 
 RMS     Displacement     0.017011     0.001200     NO 
 Predicted change in Energy=-2.765274D-04
 GradGradGradGradGradGradGradGradGradGradGradGradGradGradGradGradGradGrad

                          Input orientation:                          
 ---------------------------------------------------------------------
 Center     Atomic      Atomic             Coordinates (Angstroms)
 Number     Number       Type             X           Y           Z
 ---------------------------------------------------------------------
      1          6           0       -3.462054    2.053351   -0.340905
      2          6           0       -1.986243    1.916686   -0.011078
      3          8           0       -4.026761    3.118563   -0.412442
      4          8           0       -4.151719    0.903908   -0.560468
      5          1           0       -1.412429    2.474019   -0.755009
      6          1           0       -1.624057    0.885808    0.016063
      7          1           0       -1.804427    2.381463    0.960642
      8          1           0       -3.575940    0.131913   -0.470564
 ---------------------------------------------------------------------
                    Distance matrix (angstroms):
                    1          2          3          4          5
     1  C    0.000000
     2  C    1.518381   0.000000
     3  O    1.207761   2.401940   0.000000
     4  O    1.358332   2.452924   2.223111   0.000000
     5  H    2.132934   1.092390   2.714318   3.163353   0.000000
     6  H    2.206540   1.092989   3.307839   2.592642   1.778131
     7  H    2.132934   1.092389   2.714304   3.163341   1.762296
     8  H    1.929172   2.433861   3.021042   0.967253   3.201117
                    6          7          8
     6  H    0.000000
     7  H    1.778130   0.000000
     8  H    2.148258   3.201106   0.000000
 Stoichiometry    C2H4O2
 Framework group  C1[X(C2H4O2)]
 Deg. of freedom    18
 Full point group                 C1      NOp   1
 Largest Abelian subgroup         C1      NOp   1
 Largest concise Abelian subgroup C1      NOp   1
                         Standard orientation:                         
 ---------------------------------------------------------------------
 Center     Atomic      Atomic             Coordinates (Angstroms)
 Number     Number       Type             X           Y           Z
 ---------------------------------------------------------------------
      1          6           0       -0.122383    0.132660   -0.000014
      2          6           0        1.369023   -0.152276    0.000002
      3          8           0       -0.581167    1.249891    0.000004
      4          8           0       -0.953350   -0.941844    0.000002
      5          1           0        1.811154    0.318278   -0.881143
      6          1           0        1.624873   -1.214898    0.000006
      7          1           0        1.811137    0.318279    0.881154
      8          1           0       -0.450871   -1.768340    0.000003
 ---------------------------------------------------------------------
 Rotational constants (GHZ):          10.9917833           9.4848839           5.2572196
 Standard basis: 6-31+G(d,p) (6D, 7F)
 There are    96 symmetry adapted cartesian basis functions of A   symmetry.
 There are    96 symmetry adapted basis functions of A   symmetry.
    96 basis functions,   156 primitive gaussians,    96 cartesian basis functions
    16 alpha electrons       16 beta electrons
       nuclear repulsion energy       120.4852453839 Hartrees.
 NAtoms=    8 NActive=    8 NUniq=    8 SFac= 1.00D+00 NAtFMM=   60 NAOKFM=F Big=F
 Integral buffers will be    131072 words long.
 Raffenetti 2 integral format.
 Two-electron integral symmetry is turned on.
 One-electron integrals computed using PRISM.
 NBasis=    96 RedAO= T EigKep=  2.15D-04  NBF=    96
 NBsUse=    96 1.00D-06 EigRej= -1.00D+00 NBFU=    96
 Initial guess from the checkpoint file:  "acidoacetico.chk"
 B after Tr=    -0.000000   -0.000000    0.000000
         Rot=    0.999999    0.000000    0.000001   -0.001319 Ang=   0.15 deg.
 ExpMin= 4.38D-02 ExpMax= 5.48D+03 ExpMxC= 8.25D+02 IAcc=3 IRadAn=         5 AccDes= 0.00D+00
 Harris functional with IExCor=  402 and IRadAn=       5 diagonalized for initial guess.
 HarFok:  IExCor=  402 AccDes= 0.00D+00 IRadAn=         5 IDoV= 1 UseB2=F ITyADJ=14
 ICtDFT=  3500011 ScaDFX=  1.000000  1.000000  1.000000  1.000000
 FoFCou: FMM=F IPFlag=           0 FMFlag=      100000 FMFlg1=           0
         NFxFlg=           0 DoJE=T BraDBF=F KetDBF=T FulRan=T
         wScrn=  0.000000 ICntrl=       500 IOpCl=  0 I1Cent=   200000004 NGrid=           0
         NMat0=    1 NMatS0=      1 NMatT0=    0 NMatD0=    1 NMtDS0=    0 NMtDT0=    0
 Petite list used in FoFCou.
 Keep R1 ints in memory in canonical form, NReq=11764689.
 Requested convergence on RMS density matrix=1.00D-08 within 128 cycles.
 Requested convergence on MAX density matrix=1.00D-06.
 Requested convergence on             energy=1.00D-06.
 No special actions if energy rises.
 SCF Done:  E(RB3LYP) =  -229.095391716     A.U. after    9 cycles
            NFock=  9  Conv=0.78D-08     -V/T= 2.0092
 Calling FoFJK, ICntrl=      2127 FMM=F ISym2X=0 I1Cent= 0 IOpClX= 0 NMat=1 NMatS=1 NMatT=0.
 ***** Axes restored to original set *****
 -------------------------------------------------------------------
 Center     Atomic                   Forces (Hartrees/Bohr)
 Number     Number              X              Y              Z
 -------------------------------------------------------------------
      1        6           0.000576623    0.004696911    0.000391147
      2        6           0.000294537   -0.000309308    0.000048539
      3        8           0.000573017   -0.002293594    0.000004779
      4        8          -0.001723640   -0.002454631   -0.000527586
      5        1           0.000343952    0.000424947   -0.000341733
      6        1           0.000059795   -0.000449249   -0.000010788
      7        1           0.000151302    0.000379869    0.000498602
      8        1          -0.000275585    0.000005056   -0.000062959
 -------------------------------------------------------------------
 Cartesian Forces:  Max     0.004696911 RMS     0.001270033

 GradGradGradGradGradGradGradGradGradGradGradGradGradGradGradGradGradGrad
 Berny optimization.
 Using GEDIIS/GDIIS optimizer.
 FormGI is forming the generalized inverse of G from B-inverse, IUseBI=4.
 Internal  Forces:  Max     0.003183370 RMS     0.000867735
 Search for a local minimum.
 Step number   3 out of a maximum of   35
 All quantities printed in internal units (Hartrees-Bohrs-Radians)
 Mixed Optimization -- En-DIIS/RFO-DIIS
 Update second derivatives using D2CorX and points    1    2    3
 DE= -2.88D-04 DEPred=-2.77D-04 R= 1.04D+00
 TightC=F SS=  1.41D+00  RLast= 5.01D-02 DXNew= 8.4853D-01 1.5025D-01
 Trust test= 1.04D+00 RLast= 5.01D-02 DXMaxT set to 5.05D-01
 ITU=  1  1  0
 Use linear search instead of GDIIS.
     Eigenvalues ---    0.00774   0.01148   0.02348   0.06941   0.07582
     Eigenvalues ---    0.15001   0.15998   0.16000   0.16335   0.24074
     Eigenvalues ---    0.28677   0.31649   0.32584   0.33136   0.33549
     Eigenvalues ---    0.50169   0.54163   0.90962
 RFO step:  Lambda=-3.78512544D-05 EMin= 7.73876640D-03
 Quartic linear search produced a step of  0.06694.
 Iteration  1 RMS(Cart)=  0.00290191 RMS(Int)=  0.00000153
 Iteration  2 RMS(Cart)=  0.00000199 RMS(Int)=  0.00000041
 Iteration  3 RMS(Cart)=  0.00000000 RMS(Int)=  0.00000041
 Variable       Old X    -DE/DX   Delta X   Delta X   Delta X     New X
                                 (Linear)    (Quad)   (Total)
    R1        2.86932   0.00086   0.00041   0.00305   0.00346   2.87278
    R2        2.28234  -0.00229  -0.00049  -0.00264  -0.00313   2.27921
    R3        2.56688   0.00318   0.00121   0.00594   0.00716   2.57403
    R4        2.06432   0.00063   0.00003   0.00171   0.00175   2.06606
    R5        2.06545   0.00044  -0.00042   0.00124   0.00081   2.06626
    R6        2.06432   0.00063   0.00003   0.00171   0.00175   2.06606
    R7        1.82784  -0.00017   0.00019  -0.00039  -0.00020   1.82764
    A1        2.14922   0.00036  -0.00012   0.00212   0.00201   2.15123
    A2        2.04030   0.00062  -0.00130   0.00228   0.00097   2.04127
    A3        2.09367  -0.00097   0.00142  -0.00440  -0.00298   2.09069
    A4        1.89305   0.00004  -0.00012  -0.00001  -0.00013   1.89292
    A5        1.99585  -0.00012  -0.00000   0.00003   0.00002   1.99587
    A6        1.89305   0.00004  -0.00012  -0.00002  -0.00014   1.89291
    A7        1.90080   0.00008   0.00035   0.00067   0.00102   1.90182
    A8        1.87684  -0.00012  -0.00049  -0.00146  -0.00195   1.87489
    A9        1.90080   0.00008   0.00035   0.00067   0.00102   1.90182
   A10        1.93706   0.00041  -0.00210   0.00146  -0.00064   1.93642
    D1       -1.01677   0.00005   0.00035   0.00097   0.00133  -1.01544
    D2        3.14157   0.00000  -0.00000   0.00010   0.00010  -3.14152
    D3        1.01672  -0.00005  -0.00036  -0.00077  -0.00113   1.01560
    D4        2.12487   0.00005   0.00036   0.00078   0.00114   2.12601
    D5        0.00002  -0.00000   0.00000  -0.00009  -0.00009  -0.00007
    D6       -2.12483  -0.00005  -0.00036  -0.00096  -0.00131  -2.12614
    D7       -0.00002   0.00000  -0.00000   0.00008   0.00008   0.00006
    D8       -3.14157  -0.00000   0.00000  -0.00010  -0.00010   3.14151
         Item               Value     Threshold  Converged?
 Maximum Force            0.003183     0.000450     NO 
 RMS     Force            0.000868     0.000300     NO 
 Maximum Displacement     0.007021     0.001800     NO 
 RMS     Displacement     0.002902     0.001200     NO 
 Predicted change in Energy=-2.004286D-05
 GradGradGradGradGradGradGradGradGradGradGradGradGradGradGradGradGradGrad

                          Input orientation:                          
 ---------------------------------------------------------------------
 Center     Atomic      Atomic             Coordinates (Angstroms)
 Number     Number       Type             X           Y           Z
 ---------------------------------------------------------------------
      1          6           0       -3.462017    2.054223   -0.340790
      2          6           0       -1.984443    1.917048   -0.010637
      3          8           0       -4.027763    3.116974   -0.412788
      4          8           0       -4.154951    0.902448   -0.561301
      5          1           0       -1.410239    2.475835   -0.754532
      6          1           0       -1.622319    0.885691    0.016459
      7          1           0       -1.802242    2.383279    0.961354
      8          1           0       -3.579656    0.130212   -0.471524
 ---------------------------------------------------------------------
                    Distance matrix (angstroms):
                    1          2          3          4          5
     1  C    0.000000
     2  C    1.520211   0.000000
     3  O    1.206107   2.403477   0.000000
     4  O    1.362119   2.458404   2.223142   0.000000
     5  H    2.135119   1.093313   2.716483   3.169595   0.000000
     6  H    2.208524   1.093419   3.308933   2.597751   1.779878
     7  H    2.135113   1.093313   2.716527   3.169634   1.762526
     8  H    1.932032   2.439243   3.020762   0.967147   3.207556
                    6          7          8
     6  H    0.000000
     7  H    1.779878   0.000000
     8  H    2.154075   3.207592   0.000000
 Stoichiometry    C2H4O2
 Framework group  C1[X(C2H4O2)]
 Deg. of freedom    18
 Full point group                 C1      NOp   1
 Largest Abelian subgroup         C1      NOp   1
 Largest concise Abelian subgroup C1      NOp   1
                         Standard orientation:                         
 ---------------------------------------------------------------------
 Center     Atomic      Atomic             Coordinates (Angstroms)
 Number     Number       Type             X           Y           Z
 ---------------------------------------------------------------------
      1          6           0       -0.120638    0.134737    0.000046
      2          6           0        1.370570   -0.160799   -0.000006
      3          8           0       -0.573358    1.252655   -0.000014
      4          8           0       -0.962351   -0.936191   -0.000007
      5          1           0        1.816345    0.308213   -0.881282
      6          1           0        1.619233   -1.225567   -0.000016
      7          1           0        1.816397    0.308210    0.881244
      8          1           0       -0.465896   -1.766195   -0.000020
 ---------------------------------------------------------------------
 Rotational constants (GHZ):          10.9959402           9.4469497           5.2465357
 Standard basis: 6-31+G(d,p) (6D, 7F)
 There are    96 symmetry adapted cartesian basis functions of A   symmetry.
 There are    96 symmetry adapted basis functions of A   symmetry.
    96 basis functions,   156 primitive gaussians,    96 cartesian basis functions
    16 alpha electrons       16 beta electrons
       nuclear repulsion energy       120.3884388263 Hartrees.
 NAtoms=    8 NActive=    8 NUniq=    8 SFac= 1.00D+00 NAtFMM=   60 NAOKFM=F Big=F
 Integral buffers will be    131072 words long.
 Raffenetti 2 integral format.
 Two-electron integral symmetry is turned on.
 One-electron integrals computed using PRISM.
 NBasis=    96 RedAO= T EigKep=  2.16D-04  NBF=    96
 NBsUse=    96 1.00D-06 EigRej= -1.00D+00 NBFU=    96
 Initial guess from the checkpoint file:  "acidoacetico.chk"
 B after Tr=     0.000000    0.000000    0.000000
         Rot=    0.999995   -0.000000   -0.000002    0.003292 Ang=  -0.38 deg.
 Keep R1 ints in memory in canonical form, NReq=11764689.
 Requested convergence on RMS density matrix=1.00D-08 within 128 cycles.
 Requested convergence on MAX density matrix=1.00D-06.
 Requested convergence on             energy=1.00D-06.
 No special actions if energy rises.
 SCF Done:  E(RB3LYP) =  -229.095414765     A.U. after    9 cycles
            NFock=  9  Conv=0.34D-08     -V/T= 2.0092
 Calling FoFJK, ICntrl=      2127 FMM=F ISym2X=0 I1Cent= 0 IOpClX= 0 NMat=1 NMatS=1 NMatT=0.
 ***** Axes restored to original set *****
 -------------------------------------------------------------------
 Center     Atomic                   Forces (Hartrees/Bohr)
 Number     Number              X              Y              Z
 -------------------------------------------------------------------
      1        6           0.000656463    0.001064701    0.000187089
      2        6          -0.000153079    0.000057431   -0.000025835
      3        8          -0.000027973   -0.000268720   -0.000012815
      4        8          -0.000182556   -0.000640471   -0.000071807
      5        1          -0.000034213    0.000003194   -0.000066766
      6        1          -0.000057615   -0.000099294   -0.000017919
      7        1          -0.000057166   -0.000003016    0.000046004
      8        1          -0.000143861   -0.000113825   -0.000037950
 -------------------------------------------------------------------
 Cartesian Forces:  Max     0.001064701 RMS     0.000303342

 GradGradGradGradGradGradGradGradGradGradGradGradGradGradGradGradGradGrad
 Berny optimization.
 Using GEDIIS/GDIIS optimizer.
 FormGI is forming the generalized inverse of G from B-inverse, IUseBI=4.
 Internal  Forces:  Max     0.000821615 RMS     0.000204683
 Search for a local minimum.
 Step number   4 out of a maximum of   35
 All quantities printed in internal units (Hartrees-Bohrs-Radians)
 Mixed Optimization -- En-DIIS/RFO-DIIS
 Swapping is turned off.
 Update second derivatives using D2CorX and points    1    2    3    4
 DE= -2.30D-05 DEPred=-2.00D-05 R= 1.15D+00
 TightC=F SS=  1.41D+00  RLast= 1.03D-02 DXNew= 8.4853D-01 3.0884D-02
 Trust test= 1.15D+00 RLast= 1.03D-02 DXMaxT set to 5.05D-01
 ITU=  1  1  1  0
     Eigenvalues ---    0.00774   0.01146   0.02348   0.06937   0.07685
     Eigenvalues ---    0.15209   0.16000   0.16103   0.16272   0.22586
     Eigenvalues ---    0.28586   0.32373   0.32584   0.33467   0.35267
     Eigenvalues ---    0.41047   0.54241   0.91559
 En-DIIS/RFO-DIIS/Sim-DIIS IScMMF=       -3 using points:     4    3
 RFO step:  Lambda=-3.55507660D-06.
 DidBck=F Rises=F RFO-DIIS coefs:    1.16497   -0.16497
 Iteration  1 RMS(Cart)=  0.00085354 RMS(Int)=  0.00000064
 Iteration  2 RMS(Cart)=  0.00000062 RMS(Int)=  0.00000013
 Variable       Old X    -DE/DX   Delta X   Delta X   Delta X     New X
                                 (Linear)    (Quad)   (Total)
    R1        2.87278  -0.00030   0.00057  -0.00134  -0.00077   2.87201
    R2        2.27921  -0.00022  -0.00052  -0.00004  -0.00055   2.27866
    R3        2.57403   0.00082   0.00118   0.00111   0.00230   2.57633
    R4        2.06606   0.00003   0.00029  -0.00016   0.00012   2.06619
    R5        2.06626   0.00007   0.00013   0.00006   0.00020   2.06646
    R6        2.06606   0.00003   0.00029  -0.00016   0.00013   2.06619
    R7        1.82764   0.00000  -0.00003   0.00004   0.00001   1.82765
    A1        2.15123   0.00021   0.00033   0.00093   0.00126   2.15249
    A2        2.04127  -0.00008   0.00016  -0.00075  -0.00059   2.04068
    A3        2.09069  -0.00013  -0.00049  -0.00018  -0.00067   2.09002
    A4        1.89292  -0.00005  -0.00002  -0.00034  -0.00036   1.89256
    A5        1.99587  -0.00011   0.00000  -0.00080  -0.00080   1.99507
    A6        1.89291  -0.00004  -0.00002  -0.00030  -0.00033   1.89258
    A7        1.90182   0.00007   0.00017   0.00030   0.00047   1.90229
    A8        1.87489   0.00008  -0.00032   0.00096   0.00063   1.87552
    A9        1.90182   0.00007   0.00017   0.00030   0.00046   1.90228
   A10        1.93642   0.00034  -0.00011   0.00191   0.00180   1.93822
    D1       -1.01544  -0.00003   0.00022  -0.00079  -0.00057  -1.01601
    D2       -3.14152  -0.00000   0.00002  -0.00038  -0.00037   3.14130
    D3        1.01560   0.00002  -0.00019  -0.00000  -0.00019   1.01541
    D4        2.12601  -0.00002   0.00019  -0.00006   0.00012   2.12613
    D5       -0.00007   0.00000  -0.00001   0.00034   0.00032   0.00026
    D6       -2.12614   0.00003  -0.00022   0.00072   0.00050  -2.12563
    D7        0.00006  -0.00000   0.00001  -0.00030  -0.00029  -0.00023
    D8        3.14151   0.00000  -0.00002   0.00039   0.00038  -3.14129
         Item               Value     Threshold  Converged?
 Maximum Force            0.000822     0.000450     NO 
 RMS     Force            0.000205     0.000300     YES
 Maximum Displacement     0.002422     0.001800     NO 
 RMS     Displacement     0.000854     0.001200     YES
 Predicted change in Energy=-1.777552D-06
 GradGradGradGradGradGradGradGradGradGradGradGradGradGradGradGradGradGrad

                          Input orientation:                          
 ---------------------------------------------------------------------
 Center     Atomic      Atomic             Coordinates (Angstroms)
 Number     Number       Type             X           Y           Z
 ---------------------------------------------------------------------
      1          6           0       -3.461253    2.055071   -0.340792
      2          6           0       -1.984151    1.917455   -0.010587
      3          8           0       -4.027916    3.117009   -0.412703
      4          8           0       -4.154545    0.902050   -0.561173
      5          1           0       -1.409990    2.476112   -0.754710
      6          1           0       -1.623109    0.885601    0.016250
      7          1           0       -1.802280    2.383483    0.961638
      8          1           0       -3.580386    0.128930   -0.471684
 ---------------------------------------------------------------------
                    Distance matrix (angstroms):
                    1          2          3          4          5
     1  C    0.000000
     2  C    1.519804   0.000000
     3  O    1.205815   2.403665   0.000000
     4  O    1.363334   2.458618   2.223538   0.000000
     5  H    2.134545   1.093379   2.716847   3.169812   0.000000
     6  H    2.207694   1.093524   3.308516   2.596508   1.780315
     7  H    2.134566   1.093380   2.716676   3.169661   1.763043
     8  H    1.934256   2.441188   3.021983   0.967151   3.209359
                    6          7          8
     6  H    0.000000
     7  H    1.780313   0.000000
     8  H    2.154428   3.209218   0.000000
 Stoichiometry    C2H4O2
 Framework group  C1[X(C2H4O2)]
 Deg. of freedom    18
 Full point group                 C1      NOp   1
 Largest Abelian subgroup         C1      NOp   1
 Largest concise Abelian subgroup C1      NOp   1
                         Standard orientation:                         
 ---------------------------------------------------------------------
 Center     Atomic      Atomic             Coordinates (Angstroms)
 Number     Number       Type             X           Y           Z
 ---------------------------------------------------------------------
      1          6           0       -0.119919    0.135515   -0.000177
      2          6           0        1.370515   -0.161824    0.000022
      3          8           0       -0.572528    1.253162    0.000053
      4          8           0       -0.963099   -0.935805    0.000028
      5          1           0        1.816667    0.306613   -0.881449
      6          1           0        1.617006   -1.227205    0.000060
      7          1           0        1.816462    0.306623    0.881594
      8          1           0       -0.468694   -1.767036    0.000074
 ---------------------------------------------------------------------
 Rotational constants (GHZ):          10.9909738           9.4465153           5.2453710
 Standard basis: 6-31+G(d,p) (6D, 7F)
 There are    96 symmetry adapted cartesian basis functions of A   symmetry.
 There are    96 symmetry adapted basis functions of A   symmetry.
    96 basis functions,   156 primitive gaussians,    96 cartesian basis functions
    16 alpha electrons       16 beta electrons
       nuclear repulsion energy       120.3731183351 Hartrees.
 NAtoms=    8 NActive=    8 NUniq=    8 SFac= 1.00D+00 NAtFMM=   60 NAOKFM=F Big=F
 Integral buffers will be    131072 words long.
 Raffenetti 2 integral format.
 Two-electron integral symmetry is turned on.
 One-electron integrals computed using PRISM.
 NBasis=    96 RedAO= T EigKep=  2.16D-04  NBF=    96
 NBsUse=    96 1.00D-06 EigRej= -1.00D+00 NBFU=    96
 Initial guess from the checkpoint file:  "acidoacetico.chk"
 B after Tr=    -0.000000    0.000000    0.000000
         Rot=    1.000000    0.000000    0.000007    0.000403 Ang=   0.05 deg.
 Keep R1 ints in memory in canonical form, NReq=11764689.
 Requested convergence on RMS density matrix=1.00D-08 within 128 cycles.
 Requested convergence on MAX density matrix=1.00D-06.
 Requested convergence on             energy=1.00D-06.
 No special actions if energy rises.
 SCF Done:  E(RB3LYP) =  -229.095416671     A.U. after    8 cycles
            NFock=  8  Conv=0.33D-08     -V/T= 2.0093
 Calling FoFJK, ICntrl=      2127 FMM=F ISym2X=0 I1Cent= 0 IOpClX= 0 NMat=1 NMatS=1 NMatT=0.
 ***** Axes restored to original set *****
 -------------------------------------------------------------------
 Center     Atomic                   Forces (Hartrees/Bohr)
 Number     Number              X              Y              Z
 -------------------------------------------------------------------
      1        6           0.000248778   -0.000017117    0.000134502
      2        6          -0.000091901    0.000041506   -0.000042203
      3        8          -0.000080997    0.000012124   -0.000048951
      4        8          -0.000050172   -0.000041091   -0.000031032
      5        1           0.000007226   -0.000024406    0.000006884
      6        1          -0.000021322    0.000023790   -0.000005889
      7        1          -0.000000138   -0.000023084   -0.000008161
      8        1          -0.000011473    0.000028278   -0.000005149
 -------------------------------------------------------------------
 Cartesian Forces:  Max     0.000248778 RMS     0.000067640

 GradGradGradGradGradGradGradGradGradGradGradGradGradGradGradGradGradGrad
 Berny optimization.
 Using GEDIIS/GDIIS optimizer.
 FormGI is forming the generalized inverse of G from B-inverse, IUseBI=4.
 Internal  Forces:  Max     0.000115464 RMS     0.000039980
 Search for a local minimum.
 Step number   5 out of a maximum of   35
 All quantities printed in internal units (Hartrees-Bohrs-Radians)
 Mixed Optimization -- En-DIIS/RFO-DIIS
 Swapping is turned off.
 Update second derivatives using D2CorX and points    1    2    3    4    5
 DE= -1.91D-06 DEPred=-1.78D-06 R= 1.07D+00
 TightC=F SS=  1.41D+00  RLast= 3.83D-03 DXNew= 8.4853D-01 1.1495D-02
 Trust test= 1.07D+00 RLast= 3.83D-03 DXMaxT set to 5.05D-01
 ITU=  1  1  1  1  0
     Eigenvalues ---    0.00774   0.01166   0.02348   0.06945   0.07623
     Eigenvalues ---    0.14978   0.15712   0.16018   0.16387   0.21810
     Eigenvalues ---    0.26899   0.32286   0.32584   0.33546   0.35562
     Eigenvalues ---    0.42705   0.54364   0.92150
 En-DIIS/RFO-DIIS/Sim-DIIS IScMMF=       -3 using points:     5    4    3
 RFO step:  Lambda=-2.96038669D-07.
 DidBck=T Rises=F RFO-DIIS coefs:    0.76630    0.42160   -0.18789
 Iteration  1 RMS(Cart)=  0.00027451 RMS(Int)=  0.00000019
 Iteration  2 RMS(Cart)=  0.00000019 RMS(Int)=  0.00000012
 Variable       Old X    -DE/DX   Delta X   Delta X   Delta X     New X
                                 (Linear)    (Quad)   (Total)
    R1        2.87201  -0.00012   0.00083  -0.00111  -0.00028   2.87173
    R2        2.27866   0.00005  -0.00046   0.00046  -0.00000   2.27866
    R3        2.57633   0.00005   0.00081  -0.00059   0.00022   2.57655
    R4        2.06619  -0.00001   0.00030  -0.00030   0.00000   2.06619
    R5        2.06646  -0.00003   0.00011  -0.00013  -0.00002   2.06644
    R6        2.06619  -0.00002   0.00030  -0.00030  -0.00000   2.06618
    R7        1.82765  -0.00003  -0.00004   0.00000  -0.00004   1.82761
    A1        2.15249   0.00007   0.00008   0.00017   0.00026   2.15275
    A2        2.04068   0.00002   0.00032  -0.00026   0.00006   2.04074
    A3        2.09002  -0.00010  -0.00040   0.00009  -0.00032   2.08970
    A4        1.89256   0.00003   0.00006   0.00006   0.00012   1.89268
    A5        1.99507  -0.00003   0.00019  -0.00043  -0.00024   1.99484
    A6        1.89258   0.00001   0.00005  -0.00000   0.00005   1.89263
    A7        1.90229  -0.00001   0.00008  -0.00011  -0.00003   1.90226
    A8        1.87552   0.00000  -0.00051   0.00065   0.00014   1.87566
    A9        1.90228  -0.00000   0.00008  -0.00010  -0.00001   1.90227
   A10        1.93822  -0.00001  -0.00054   0.00070   0.00016   1.93838
    D1       -1.01601   0.00000   0.00038   0.00026   0.00065  -1.01536
    D2        3.14130   0.00001   0.00010   0.00065   0.00076  -3.14113
    D3        1.01541   0.00003  -0.00017   0.00107   0.00090   1.01631
    D4        2.12613  -0.00002   0.00019  -0.00096  -0.00077   2.12536
    D5        0.00026  -0.00001  -0.00009  -0.00057  -0.00066  -0.00040
    D6       -2.12563   0.00000  -0.00036  -0.00015  -0.00052  -2.12615
    D7       -0.00023   0.00001   0.00008   0.00051   0.00059   0.00036
    D8       -3.14129  -0.00002  -0.00011  -0.00066  -0.00077   3.14112
         Item               Value     Threshold  Converged?
 Maximum Force            0.000115     0.000450     YES
 RMS     Force            0.000040     0.000300     YES
 Maximum Displacement     0.000894     0.001800     YES
 RMS     Displacement     0.000275     0.001200     YES
 Predicted change in Energy=-1.255174D-07
 Optimization completed.
    -- Stationary point found.
                           ----------------------------
                           !   Optimized Parameters   !
                           ! (Angstroms and Degrees)  !
 --------------------------                            --------------------------
 ! Name  Definition              Value          Derivative Info.                !
 --------------------------------------------------------------------------------
 ! R1    R(1,2)                  1.5198         -DE/DX =   -0.0001              !
 ! R2    R(1,3)                  1.2058         -DE/DX =    0.0001              !
 ! R3    R(1,4)                  1.3633         -DE/DX =    0.0                 !
 ! R4    R(2,5)                  1.0934         -DE/DX =    0.0                 !
 ! R5    R(2,6)                  1.0935         -DE/DX =    0.0                 !
 ! R6    R(2,7)                  1.0934         -DE/DX =    0.0                 !
 ! R7    R(4,8)                  0.9672         -DE/DX =    0.0                 !
 ! A1    A(2,1,3)              123.3286         -DE/DX =    0.0001              !
 ! A2    A(2,1,4)              116.9221         -DE/DX =    0.0                 !
 ! A3    A(3,1,4)              119.7493         -DE/DX =   -0.0001              !
 ! A4    A(1,2,5)              108.4356         -DE/DX =    0.0                 !
 ! A5    A(1,2,6)              114.3092         -DE/DX =    0.0                 !
 ! A6    A(1,2,7)              108.4371         -DE/DX =    0.0                 !
 ! A7    A(5,2,6)              108.9931         -DE/DX =    0.0                 !
 ! A8    A(5,2,7)              107.4595         -DE/DX =    0.0                 !
 ! A9    A(6,2,7)              108.9928         -DE/DX =    0.0                 !
 ! A10   A(1,4,8)              111.052          -DE/DX =    0.0                 !
 ! D1    D(3,1,2,5)            -58.2129         -DE/DX =    0.0                 !
 ! D2    D(3,1,2,6)           -180.0168         -DE/DX =    0.0                 !
 ! D3    D(3,1,2,7)             58.1786         -DE/DX =    0.0                 !
 ! D4    D(4,1,2,5)            121.8186         -DE/DX =    0.0                 !
 ! D5    D(4,1,2,6)              0.0147         -DE/DX =    0.0                 !
 ! D6    D(4,1,2,7)           -121.7899         -DE/DX =    0.0                 !
 ! D7    D(2,1,4,8)             -0.0132         -DE/DX =    0.0                 !
 ! D8    D(3,1,4,8)            180.0171         -DE/DX =    0.0                 !
 --------------------------------------------------------------------------------
 GradGradGradGradGradGradGradGradGradGradGradGradGradGradGradGradGradGrad

                          Input orientation:                          
 ---------------------------------------------------------------------
 Center     Atomic      Atomic             Coordinates (Angstroms)
 Number     Number       Type             X           Y           Z
 ---------------------------------------------------------------------
      1          6           0       -3.461253    2.055071   -0.340792
      2          6           0       -1.984151    1.917455   -0.010587
      3          8           0       -4.027916    3.117009   -0.412703
      4          8           0       -4.154545    0.902050   -0.561173
      5          1           0       -1.409990    2.476112   -0.754710
      6          1           0       -1.623109    0.885601    0.016250
      7          1           0       -1.802280    2.383483    0.961638
      8          1           0       -3.580386    0.128930   -0.471684
 ---------------------------------------------------------------------
                    Distance matrix (angstroms):
                    1          2          3          4          5
     1  C    0.000000
     2  C    1.519804   0.000000
     3  O    1.205815   2.403665   0.000000
     4  O    1.363334   2.458618   2.223538   0.000000
     5  H    2.134545   1.093379   2.716847   3.169812   0.000000
     6  H    2.207694   1.093524   3.308516   2.596508   1.780315
     7  H    2.134566   1.093380   2.716676   3.169661   1.763043
     8  H    1.934256   2.441188   3.021983   0.967151   3.209359
                    6          7          8
     6  H    0.000000
     7  H    1.780313   0.000000
     8  H    2.154428   3.209218   0.000000
 Stoichiometry    C2H4O2
 Framework group  C1[X(C2H4O2)]
 Deg. of freedom    18
 Full point group                 C1      NOp   1
 Largest Abelian subgroup         C1      NOp   1
 Largest concise Abelian subgroup C1      NOp   1
                         Standard orientation:                         
 ---------------------------------------------------------------------
 Center     Atomic      Atomic             Coordinates (Angstroms)
 Number     Number       Type             X           Y           Z
 ---------------------------------------------------------------------
      1          6           0       -0.119919    0.135515   -0.000177
      2          6           0        1.370515   -0.161824    0.000022
      3          8           0       -0.572528    1.253162    0.000053
      4          8           0       -0.963099   -0.935805    0.000028
      5          1           0        1.816667    0.306613   -0.881449
      6          1           0        1.617006   -1.227205    0.000060
      7          1           0        1.816462    0.306623    0.881594
      8          1           0       -0.468694   -1.767036    0.000074
 ---------------------------------------------------------------------
 Rotational constants (GHZ):          10.9909738           9.4465153           5.2453710

 **********************************************************************

            Population analysis using the SCF Density.

 **********************************************************************

 Orbital symmetries:
       Occupied  (A) (A) (A) (A) (A) (A) (A) (A) (A) (A) (A) (A)
                 (A) (A) (A) (A)
       Virtual   (A) (A) (A) (A) (A) (A) (A) (A) (A) (A) (A) (A)
                 (A) (A) (A) (A) (A) (A) (A) (A) (A) (A) (A) (A)
                 (A) (A) (A) (A) (A) (A) (A) (A) (A) (A) (A) (A)
                 (A) (A) (A) (A) (A) (A) (A) (A) (A) (A) (A) (A)
                 (A) (A) (A) (A) (A) (A) (A) (A) (A) (A) (A) (A)
                 (A) (A) (A) (A) (A) (A) (A) (A) (A) (A) (A) (A)
                 (A) (A) (A) (A) (A) (A) (A) (A)
 The electronic state is 1-A.
 Alpha  occ. eigenvalues --  -19.21663 -19.15240 -10.33903 -10.22264  -1.11611
 Alpha  occ. eigenvalues --   -1.03494  -0.76852  -0.63357  -0.52991  -0.48162
 Alpha  occ. eigenvalues --   -0.47836  -0.43427  -0.40996  -0.39017  -0.33190
 Alpha  occ. eigenvalues --   -0.28955
 Alpha virt. eigenvalues --   -0.01648  -0.00963   0.02229   0.04385   0.04455
 Alpha virt. eigenvalues --    0.07098   0.07772   0.08975   0.11220   0.13867
 Alpha virt. eigenvalues --    0.15384   0.17768   0.18812   0.21688   0.22304
 Alpha virt. eigenvalues --    0.23537   0.27656   0.28575   0.28842   0.30502
 Alpha virt. eigenvalues --    0.32449   0.34864   0.37118   0.44579   0.61340
 Alpha virt. eigenvalues --    0.62026   0.66369   0.68723   0.75667   0.78789
 Alpha virt. eigenvalues --    0.88846   0.93222   0.95425   1.05153   1.08086
 Alpha virt. eigenvalues --    1.10187   1.12603   1.22582   1.24286   1.28878
 Alpha virt. eigenvalues --    1.29645   1.32578   1.36743   1.42384   1.49427
 Alpha virt. eigenvalues --    1.52962   1.55599   1.70726   1.72108   1.73633
 Alpha virt. eigenvalues --    1.82179   1.86712   1.93715   2.00210   2.01505
 Alpha virt. eigenvalues --    2.07663   2.09184   2.21102   2.21337   2.28470
 Alpha virt. eigenvalues --    2.41786   2.42048   2.47454   2.56728   2.64407
 Alpha virt. eigenvalues --    2.68624   2.72894   2.79265   2.83739   2.96185
 Alpha virt. eigenvalues --    3.04289   3.20942   3.24395   3.39428   3.40723
 Alpha virt. eigenvalues --    3.49348   4.18990   4.27056   4.35045   4.58646
          Condensed to atoms (all electrons):
               1          2          3          4          5          6
     1  C    4.805049   0.290035   0.454380   0.103680  -0.023167  -0.041204
     2  C    0.290035   5.216516  -0.122978  -0.113473   0.388116   0.382296
     3  O    0.454380  -0.122978   8.202953  -0.111611  -0.006690   0.007303
     4  O    0.103680  -0.113473  -0.111611   8.345280   0.002323   0.000423
     5  H   -0.023167   0.388116  -0.006690   0.002323   0.487697  -0.027640
     6  H   -0.041204   0.382296   0.007303   0.000423  -0.027640   0.573062
     7  H   -0.023171   0.388137  -0.006697   0.002318  -0.018168  -0.027644
     8  H    0.027058  -0.003828   0.011066   0.188637   0.000121   0.002442
               7          8
     1  C   -0.023171   0.027058
     2  C    0.388137  -0.003828
     3  O   -0.006697   0.011066
     4  O    0.002318   0.188637
     5  H   -0.018168   0.000121
     6  H   -0.027644   0.002442
     7  H    0.487678   0.000121
     8  H    0.000121   0.437397
 Mulliken charges:
               1
     1  C    0.407340
     2  C   -0.424821
     3  O   -0.427727
     4  O   -0.417576
     5  H    0.197408
     6  H    0.130964
     7  H    0.197426
     8  H    0.336986
 Sum of Mulliken charges =   0.00000
 Mulliken charges with hydrogens summed into heavy atoms:
               1
     1  C    0.407340
     2  C    0.100978
     3  O   -0.427727
     4  O   -0.080590
 Electronic spatial extent (au):  <R**2>=            257.7285
 Charge=              0.0000 electrons
 Dipole moment (field-independent basis, Debye):
    X=              3.2090    Y=             -3.3099    Z=             -0.0002  Tot=              4.6101
 Quadrupole moment (field-independent basis, Debye-Ang):
   XX=            -25.5418   YY=            -23.7383   ZZ=            -23.3975
   XY=              0.9223   XZ=              0.0003   YZ=             -0.0003
 Traceless Quadrupole moment (field-independent basis, Debye-Ang):
   XX=             -1.3159   YY=              0.4876   ZZ=              0.8284
   XY=              0.9223   XZ=              0.0003   YZ=             -0.0003
 Octapole moment (field-independent basis, Debye-Ang**2):
  XXX=              1.5198  YYY=            -15.9081  ZZZ=              0.0006  XYY=              0.4541
  XXY=              1.1984  XXZ=              0.0003  XZZ=             -0.0303  YZZ=              0.7179
  YYZ=              0.0009  XYZ=              0.0002
 Hexadecapole moment (field-independent basis, Debye-Ang**3):
 XXXX=           -170.6833 YYYY=           -111.5203 ZZZZ=            -28.6833 XXXY=              1.6955
 XXXZ=             -0.0001 YYYX=              5.8028 YYYZ=             -0.0010 ZZZX=              0.0003
 ZZZY=              0.0003 XXYY=            -50.4846 XXZZ=            -31.1324 YYZZ=            -26.2207
 XXYZ=             -0.0004 YYXZ=             -0.0004 ZZXY=              1.4326
 N-N= 1.203731183351D+02 E-N=-7.771486508379D+02  KE= 2.269950900824D+02
 ******************************Gaussian NBO Version 3.1******************************
             N A T U R A L   A T O M I C   O R B I T A L   A N D
          N A T U R A L   B O N D   O R B I T A L   A N A L Y S I S
 ******************************Gaussian NBO Version 3.1******************************
       /RESON  / : Allow strongly delocalized NBO set

 Analyzing the SCF density

 Job title: acidoacetico                                                    

 Storage needed:     28152 in NPA ( 104857200 available)
 GSVD:  LWork=        4422 too small for GESVD, short by        4743 words or        4743 for optimal perf.


 NATURAL POPULATIONS:  Natural atomic orbital occupancies 
                                                          
   NAO  Atom  No  lang   Type(AO)    Occupancy      Energy
 ----------------------------------------------------------
     1    C    1  S      Cor( 1S)     1.99950     -10.22418
     2    C    1  S      Val( 2S)     0.80595      -0.19862
     3    C    1  S      Ryd( 4S)     0.00535       1.39013
     4    C    1  S      Ryd( 3S)     0.00034       0.29606
     5    C    1  S      Ryd( 5S)     0.00023       3.57769
     6    C    1  px     Val( 2p)     0.87904      -0.06171
     7    C    1  px     Ryd( 4p)     0.01045       0.75783
     8    C    1  px     Ryd( 3p)     0.00086       0.32743
     9    C    1  py     Val( 2p)     0.71868      -0.01272
    10    C    1  py     Ryd( 4p)     0.01363       0.65247
    11    C    1  py     Ryd( 3p)     0.00048       0.28407
    12    C    1  pz     Val( 2p)     0.75428      -0.14016
    13    C    1  pz     Ryd( 4p)     0.00209       0.56128
    14    C    1  pz     Ryd( 3p)     0.00031       0.21619
    15    C    1  dxy    Ryd( 3d)     0.00349       2.55925
    16    C    1  dxz    Ryd( 3d)     0.00087       1.93734
    17    C    1  dyz    Ryd( 3d)     0.00227       2.21382
    18    C    1  dx2y2  Ryd( 3d)     0.00258       2.60147
    19    C    1  dz2    Ryd( 3d)     0.00039       2.30355

    20    C    2  S      Cor( 1S)     1.99939     -10.09383
    21    C    2  S      Val( 2S)     1.14711      -0.31969
    22    C    2  S      Ryd( 4S)     0.00044       1.21428
    23    C    2  S      Ryd( 3S)     0.00010       0.48014
    24    C    2  S      Ryd( 5S)     0.00001       4.29750
    25    C    2  px     Val( 2p)     1.12033      -0.13703
    26    C    2  px     Ryd( 4p)     0.00083       0.36899
    27    C    2  px     Ryd( 3p)     0.00027       0.34665
    28    C    2  py     Val( 2p)     1.25389      -0.12690
    29    C    2  py     Ryd( 4p)     0.00211       0.52780
    30    C    2  py     Ryd( 3p)     0.00007       0.46382
    31    C    2  pz     Val( 2p)     1.28219      -0.13484
    32    C    2  pz     Ryd( 4p)     0.00091       0.43999
    33    C    2  pz     Ryd( 3p)     0.00013       0.41379
    34    C    2  dxy    Ryd( 3d)     0.00030       2.28266
    35    C    2  dxz    Ryd( 3d)     0.00038       2.18711
    36    C    2  dyz    Ryd( 3d)     0.00051       2.26873
    37    C    2  dx2y2  Ryd( 3d)     0.00094       2.39367
    38    C    2  dz2    Ryd( 3d)     0.00062       2.33144

    39    O    3  S      Cor( 1S)     1.99977     -18.87711
    40    O    3  S      Val( 2S)     1.70247      -0.90851
    41    O    3  S      Ryd( 3S)     0.00224       0.94076
    42    O    3  S      Ryd( 4S)     0.00019       2.10792
    43    O    3  S      Ryd( 5S)     0.00008       3.09990
    44    O    3  px     Val( 2p)     1.80164      -0.27108
    45    O    3  px     Ryd( 3p)     0.00324       0.74074
    46    O    3  px     Ryd( 4p)     0.00004       0.97394
    47    O    3  py     Val( 2p)     1.61245      -0.30631
    48    O    3  py     Ryd( 3p)     0.00076       0.85204
    49    O    3  py     Ryd( 4p)     0.00010       1.01038
    50    O    3  pz     Val( 2p)     1.43735      -0.25552
    51    O    3  pz     Ryd( 3p)     0.00083       0.66903
    52    O    3  pz     Ryd( 4p)     0.00003       0.83379
    53    O    3  dxy    Ryd( 3d)     0.00530       2.12839
    54    O    3  dxz    Ryd( 3d)     0.00088       1.80411
    55    O    3  dyz    Ryd( 3d)     0.00417       1.85115
    56    O    3  dx2y2  Ryd( 3d)     0.00609       2.14387
    57    O    3  dz2    Ryd( 3d)     0.00183       1.98546

    58    O    4  S      Cor( 1S)     1.99977     -19.01969
    59    O    4  S      Val( 2S)     1.68886      -0.94051
    60    O    4  S      Ryd( 3S)     0.00308       0.81480
    61    O    4  S      Ryd( 4S)     0.00040       1.28574
    62    O    4  S      Ryd( 5S)     0.00003       3.98916
    63    O    4  px     Val( 2p)     1.74681      -0.36071
    64    O    4  px     Ryd( 3p)     0.00182       0.60514
    65    O    4  px     Ryd( 4p)     0.00015       0.98912
    66    O    4  py     Val( 2p)     1.44335      -0.33779
    67    O    4  py     Ryd( 3p)     0.00396       0.73404
    68    O    4  py     Ryd( 4p)     0.00035       1.04611
    69    O    4  pz     Val( 2p)     1.82205      -0.34751
    70    O    4  pz     Ryd( 3p)     0.00228       0.44048
    71    O    4  pz     Ryd( 4p)     0.00010       0.93842
    72    O    4  dxy    Ryd( 3d)     0.00163       2.74867
    73    O    4  dxz    Ryd( 3d)     0.00252       1.87123
    74    O    4  dyz    Ryd( 3d)     0.00010       1.95425
    75    O    4  dx2y2  Ryd( 3d)     0.00165       2.28170
    76    O    4  dz2    Ryd( 3d)     0.00078       2.30865

    77    H    5  S      Val( 1S)     0.71872       0.06046
    78    H    5  S      Ryd( 2S)     0.00047       0.61527
    79    H    5  px     Ryd( 2p)     0.00015       2.40631
    80    H    5  py     Ryd( 2p)     0.00014       2.44090
    81    H    5  pz     Ryd( 2p)     0.00027       2.76561

    82    H    6  S      Val( 1S)     0.76188       0.03452
    83    H    6  S      Ryd( 2S)     0.00066       0.62262
    84    H    6  px     Ryd( 2p)     0.00012       2.31427
    85    H    6  py     Ryd( 2p)     0.00036       2.96066
    86    H    6  pz     Ryd( 2p)     0.00007       2.27431

    87    H    7  S      Val( 1S)     0.71871       0.06046
    88    H    7  S      Ryd( 2S)     0.00047       0.61527
    89    H    7  px     Ryd( 2p)     0.00015       2.40617
    90    H    7  py     Ryd( 2p)     0.00014       2.44089
    91    H    7  pz     Ryd( 2p)     0.00027       2.76572

    92    H    8  S      Val( 1S)     0.48309       0.10882
    93    H    8  S      Ryd( 2S)     0.00115       0.63333
    94    H    8  px     Ryd( 2p)     0.00078       2.57001
    95    H    8  py     Ryd( 2p)     0.00107       2.90327
    96    H    8  pz     Ryd( 2p)     0.00082       2.23705

 WARNING:  Population inversion found on atom  C    1
           Population inversion found on atom  C    2


 Summary of Natural Population Analysis:                  
                                                          
                                       Natural Population 
                Natural  -----------------------------------------------
    Atom  No    Charge         Core      Valence    Rydberg      Total
 -----------------------------------------------------------------------
      C    1    0.79920      1.99950     3.15795    0.04335     5.20080
      C    2   -0.81053      1.99939     4.80352    0.00762     6.81053
      O    3   -0.57947      1.99977     6.55391    0.02579     8.57947
      O    4   -0.71972      1.99977     6.70108    0.01887     8.71972
      H    5    0.28025      0.00000     0.71872    0.00102     0.71975
      H    6    0.23690      0.00000     0.76188    0.00122     0.76310
      H    7    0.28026      0.00000     0.71871    0.00102     0.71974
      H    8    0.51310      0.00000     0.48309    0.00381     0.48690
 =======================================================================
   * Total *    0.00000      7.99843    23.89886    0.10271    32.00000

                                 Natural Population      
 --------------------------------------------------------
   Core                       7.99843 ( 99.9803% of   8)
   Valence                   23.89886 ( 99.5786% of  24)
   Natural Minimal Basis     31.89729 ( 99.6790% of  32)
   Natural Rydberg Basis      0.10271 (  0.3210% of  32)
 --------------------------------------------------------

    Atom  No          Natural Electron Configuration
 ----------------------------------------------------------------------------
      C    1      [core]2S( 0.81)2p( 2.35)4S( 0.01)3d( 0.01)4p( 0.03)
      C    2      [core]2S( 1.15)2p( 3.66)
      O    3      [core]2S( 1.70)2p( 4.85)3d( 0.02)
      O    4      [core]2S( 1.69)2p( 5.01)3p( 0.01)3d( 0.01)
      H    5            1S( 0.72)
      H    6            1S( 0.76)
      H    7            1S( 0.72)
      H    8            1S( 0.48)


 NBO analysis skipped by request.
 1\1\GINC-DYME\FOpt\RB3LYP\6-31+G(d,p)\C2H4O2\MONTOYA\18-Feb-2019\0\\#n
  B3LYP/6-31+G(d,p) Opt Pop=NPA\\acidoacetico\\0,1\C,-3.4612529568,2.05
 50713084,-0.3407923739\C,-1.9841510013,1.9174547215,-0.0105865533\O,-4
 .0279164893,3.1170088522,-0.4127025826\O,-4.1545446653,0.9020497752,-0
 .5611730325\H,-1.4099901078,2.4761115026,-0.7547097252\H,-1.6231090967
 ,0.8856006431,0.0162497327\H,-1.8022801039,2.3834834109,0.9616381224\H
 ,-3.5803855788,0.1289297861,-0.4716835875\\Version=EM64L-G16RevB.01\St
 ate=1-A\HF=-229.0954167\RMSD=3.277e-09\RMSF=6.764e-05\Dipole=1.3719761
 ,-1.1595358,0.2507526\Quadrupole=-1.0344736,0.4922528,0.5422208,0.5165
 799,-0.3488662,0.1111035\PG=C01 [X(C2H4O2)]\\@


 ... I FELL INTO A REVERIE ... THE ATOMS WERE GAMBOLING BEFORE MY EYES
 ... I SAW HOW TWO SMALL ONES UNITED TO FORM A PAIR;
 HOW THE LARGER ONES SEIZED TWO OF THE SMALLER ONES;
 HOW STILL LARGER ONES KEPT HOLD OF THREE OR FOUR
 SMALLER ONES ... I SAW HOW THE LARGER ONES FORMED A CHAIN ...
 THIS WAS THE ORIGIN OF THE STRUCTURE THEORY.

                                   -- C.F.KEKULE VON STRADONITZ
 Job cpu time:       0 days  0 hours  4 minutes 17.9 seconds.
 Elapsed time:       0 days  0 hours  5 minutes 37.7 seconds.
 File lengths (MBytes):  RWF=     22 Int=      0 D2E=      0 Chk=      3 Scr=      2
 Normal termination of Gaussian 16 at Mon Feb 18 12:18:51 2019.
