etino                                                                   
FOpt      RB3LYP                                                      6-31+G(d,p)         
Number of atoms                            I                4
Info1-9                                    I   N=           9
          11          11           0           0           0         110
           2          18        -502
Full Title                                 C   N=           1
etino       
Route                                      C   N=           3
#n B3LYP/6-31+G(d,p) Opt Pop=NPA    
Charge                                     I                0
Multiplicity                               I                1
Number of electrons                        I               14
Number of alpha electrons                  I                7
Number of beta electrons                   I                7
Number of basis functions                  I               48
Number of independent functions            I               48
Number of point charges in /Mol/           I                0
Number of translation vectors              I                0
Atomic numbers                             I   N=           4
           6           6           1           1
Nuclear charges                            R   N=           4
  6.00000000E+00  6.00000000E+00  1.00000000E+00  1.00000000E+00
Current cartesian coordinates              R   N=          12
 -5.55111512E-17 -1.11022302E-16  1.14145169E+00  2.77555756E-16 -5.55111512E-17
 -1.14145169E+00  3.33066907E-16  0.00000000E+00  3.15678610E+00  7.77156117E-16
 -3.33066907E-16 -3.15678610E+00
Number of symbols in /Mol/                 I                0
Force Field                                I                0
Atom Types                                 C   N=           4
                                                
Int Atom Types                             I   N=           4
           0           0           0           0
MM charges                                 R   N=           4
  0.00000000E+00  0.00000000E+00  0.00000000E+00  0.00000000E+00
Integer atomic weights                     I   N=           4
          12          12           1           1
Real atomic weights                        R   N=           4
  1.20000000E+01  1.20000000E+01  1.00782504E+00  1.00782504E+00
Atom fragment info                         I   N=           4
           0           0           0           0
Atom residue num                           I   N=           4
           0           0           0           0
Nuclear spins                              I   N=           4
           0           0           1           1
Nuclear ZEff                               R   N=           4
 -3.60000000E+00 -3.60000000E+00 -1.00000000E+00 -1.00000000E+00
Nuclear ZNuc                               R   N=           4
  6.00000000E+00  6.00000000E+00  1.00000000E+00  1.00000000E+00
Nuclear QMom                               R   N=           4
  0.00000000E+00  0.00000000E+00  0.00000000E+00  0.00000000E+00
Nuclear GFac                               R   N=           4
  0.00000000E+00  0.00000000E+00  2.79284600E+00  2.79284600E+00
MicOpt                                     I   N=           4
          -1          -1          -1          -1
Number of residues                         I                0
Number of secondary structures             I                0
Redundant internal dimensions              I   N=           4
           7           3           4           0
Redundant internal coordinate indices      I   N=          28
           1           2           0           0           1           3
           0           0           2           4           0           0
           2           1           3          -5           1           2
           4          -5           2           1           3          -7
           1           2           4          -7
Redundant internal coordinates             R   N=           7
  2.28290338E+00  2.01533441E+00  2.01533441E+00  3.14159265E+00  3.14159265E+00
  3.14159265E+00  3.14159265E+00
ZRed-IntVec                                I   N=           7
           0           0           0           0           0           0
           0
ZRed-FPVec                                 R   N=           7
  0.00000000E+00  0.00000000E+00  0.00000000E+00  0.00000000E+00  0.00000000E+00
  0.00000000E+00  0.00000000E+00
ZRed-Constraint1                           R   N=           7
  2.27777399E+00  2.00005745E+00  2.00005745E+00  3.14159675E+00  3.14159675E+00
  3.14159657E+00  3.14159657E+00
ZRed-Constraint2                           R   N=           7
  0.00000000E+00  0.00000000E+00  0.00000000E+00  0.00000000E+00  0.00000000E+00
  0.00000000E+00  0.00000000E+00
SymInf integers                            I   N=          26
           2           8           1           1           1          -1
           1          -1          -1          -1           1           1
          -1          -1          -1           1           1           1
          -1           1           1           1          -1          -1
          -1          -1
RotTr to input orientation                 R   N=          12
  6.48647957E-01  2.88404533E-01  7.04328513E-01  2.88404533E-01  7.63265430E-01
 -5.78142464E-01 -7.04328513E-01  5.78142464E-01  4.11913387E-01  2.95761036E+00
  4.43140776E-02  9.07068540E-04
Number of contracted shells                I               16
Number of primitive shells                 I               34
Pure/Cartesian d shells                    I                1
Pure/Cartesian f shells                    I                0
Highest angular momentum                   I                2
Largest degree of contraction              I                6
Shell types                                I   N=          16
           0          -1          -1          -1           2           0
          -1          -1          -1           2           0           0
           1           0           0           1
Number of primitives per shell             I   N=          16
           6           3           1           1           1           6
           3           1           1           1           3           1
           1           3           1           1
Shell to atom map                          I   N=          16
           1           1           1           1           1           2
           2           2           2           2           3           3
           3           4           4           4
Primitive exponents                        R   N=          34
  3.04752488E+03  4.57369518E+02  1.03948685E+02  2.92101553E+01  9.28666296E+00
  3.16392696E+00  7.86827235E+00  1.88128854E+00  5.44249258E-01  1.68714478E-01
  4.38000000E-02  8.00000000E-01  3.04752488E+03  4.57369518E+02  1.03948685E+02
  2.92101553E+01  9.28666296E+00  3.16392696E+00  7.86827235E+00  1.88128854E+00
  5.44249258E-01  1.68714478E-01  4.38000000E-02  8.00000000E-01  1.87311370E+01
  2.82539436E+00  6.40121692E-01  1.61277759E-01  1.10000000E+00  1.87311370E+01
  2.82539436E+00  6.40121692E-01  1.61277759E-01  1.10000000E+00
Contraction coefficients                   R   N=          34
  1.83473713E-03  1.40373228E-02  6.88426223E-02  2.32184443E-01  4.67941348E-01
  3.62311985E-01 -1.19332420E-01 -1.60854152E-01  1.14345644E+00  1.00000000E+00
  1.00000000E+00  1.00000000E+00  1.83473713E-03  1.40373228E-02  6.88426223E-02
  2.32184443E-01  4.67941348E-01  3.62311985E-01 -1.19332420E-01 -1.60854152E-01
  1.14345644E+00  1.00000000E+00  1.00000000E+00  1.00000000E+00  3.34946043E-02
  2.34726953E-01  8.13757326E-01  1.00000000E+00  1.00000000E+00  3.34946043E-02
  2.34726953E-01  8.13757326E-01  1.00000000E+00  1.00000000E+00
P(S=P) Contraction coefficients            R   N=          34
  0.00000000E+00  0.00000000E+00  0.00000000E+00  0.00000000E+00  0.00000000E+00
  0.00000000E+00  6.89990666E-02  3.16423961E-01  7.44308291E-01  1.00000000E+00
  1.00000000E+00  0.00000000E+00  0.00000000E+00  0.00000000E+00  0.00000000E+00
  0.00000000E+00  0.00000000E+00  0.00000000E+00  6.89990666E-02  3.16423961E-01
  7.44308291E-01  1.00000000E+00  1.00000000E+00  0.00000000E+00  0.00000000E+00
  0.00000000E+00  0.00000000E+00  0.00000000E+00  0.00000000E+00  0.00000000E+00
  0.00000000E+00  0.00000000E+00  0.00000000E+00  0.00000000E+00
Coordinates of each shell                  R   N=          48
 -5.55111512E-17  0.00000000E+00  1.14145169E+00 -5.55111512E-17  0.00000000E+00
  1.14145169E+00 -5.55111512E-17  0.00000000E+00  1.14145169E+00 -5.55111512E-17
  0.00000000E+00  1.14145169E+00 -5.55111512E-17  0.00000000E+00  1.14145169E+00
  2.22044605E-16 -1.66533454E-16 -1.14145169E+00  2.22044605E-16 -1.66533454E-16
 -1.14145169E+00  2.22044605E-16 -1.66533454E-16 -1.14145169E+00  2.22044605E-16
 -1.66533454E-16 -1.14145169E+00  2.22044605E-16 -1.66533454E-16 -1.14145169E+00
  1.11022302E-16  2.22044605E-16  3.15678610E+00  1.11022302E-16  2.22044605E-16
  3.15678610E+00  1.11022302E-16  2.22044605E-16  3.15678610E+00  1.11022302E-16
 -6.66133815E-16 -3.15678610E+00  1.11022302E-16 -6.66133815E-16 -3.15678610E+00
  1.11022302E-16 -6.66133815E-16 -3.15678610E+00
Num ILSW                                   I              100
ILSW                                       I   N=         100
           0           1           0           1           2           0
           0           0           0           0         402          -1
           5           0           0           0           2           0
           0           0           1           0           1           0
           1           0           0           0           0           0
           0           0      100000           0          -1           0
           0           0           0           0           0           0
           0           0           0           1           0           0
           0 -2000000000           1           0           0           0
           0           0           4          52           0           0
           0           0           5           0           0           0
           0           0           0           0           0           1
           0           0           0           0           0           0
           0           0           0           0           0           0
           0           0           0           0           0           0
           0           0           0           0           0           0
           0           0           0           0
Num RLSW                                   I               52
RLSW                                       R   N=          52
  8.00000000E-01  7.20000000E-01  1.00000000E+00  8.10000000E-01  2.00000000E-01
  0.00000000E+00  0.00000000E+00  1.00000000E+00  0.00000000E+00  0.00000000E+00
  0.00000000E+00  0.00000000E+00  1.00000000E+00  0.00000000E+00  0.00000000E+00
  0.00000000E+00  0.00000000E+00  1.00000000E+00  0.00000000E+00  0.00000000E+00
  0.00000000E+00  0.00000000E+00  1.00000000E+00  0.00000000E+00  0.00000000E+00
  0.00000000E+00  0.00000000E+00  1.00000000E+00  0.00000000E+00  0.00000000E+00
  0.00000000E+00  0.00000000E+00  1.00000000E+00  0.00000000E+00  0.00000000E+00
  0.00000000E+00  0.00000000E+00  0.00000000E+00  1.00000000E+00  1.00000000E+00
  0.00000000E+00  1.00000000E+00  0.00000000E+00  0.00000000E+00  0.00000000E+00
  0.00000000E+00  0.00000000E+00  0.00000000E+00  0.00000000E+00  0.00000000E+00
  0.00000000E+00  0.00000000E+00
MxBond                                     I                2
NBond                                      I   N=           4
           2           2           1           1
IBond                                      I   N=           8
           2           3           1           4           1           0
           2           0
RBond                                      R   N=           8
  3.00000000E+00  1.00000000E+00  3.00000000E+00  1.00000000E+00  1.00000000E+00
  0.00000000E+00  1.00000000E+00  0.00000000E+00
Virial Ratio                               R      2.010699862379627E+00
SCF Energy                                 R     -7.733713760998049E+01
Total Energy                               R     -7.733713760998049E+01
RMS Force                                  R      4.793642719601181E-06
RMS Density                                R      7.938045313056706E-09
Job Status                                 I                1
Nuclear derivative order                   I                1
External E-field                           R   N=          35
  0.00000000E+00  0.00000000E+00  0.00000000E+00  0.00000000E+00  0.00000000E+00
  0.00000000E+00  0.00000000E+00  0.00000000E+00  0.00000000E+00  0.00000000E+00
  0.00000000E+00  0.00000000E+00  0.00000000E+00  0.00000000E+00  0.00000000E+00
  0.00000000E+00  0.00000000E+00  0.00000000E+00  0.00000000E+00  0.00000000E+00
  0.00000000E+00  0.00000000E+00  0.00000000E+00  0.00000000E+00  0.00000000E+00
  0.00000000E+00  0.00000000E+00  0.00000000E+00  0.00000000E+00  0.00000000E+00
  0.00000000E+00  0.00000000E+00  0.00000000E+00  0.00000000E+00  0.00000000E+00
IOpCl                                      I                0
IROHF                                      I                0
Alpha Orbital Energies                     R   N=          48
 -1.02080274E+01 -1.02056648E+01 -7.58034597E-01 -5.75312952E-01 -5.02525086E-01
 -2.97074879E-01 -2.97074879E-01  1.29080471E-02  1.29080471E-02  2.16344776E-02
  2.33837101E-02  6.92274748E-02  6.92274748E-02  7.39165226E-02  1.38204898E-01
  1.38204898E-01  1.54245342E-01  1.87024894E-01  2.54216232E-01  5.27624006E-01
  6.57183769E-01  6.57183769E-01  6.61792570E-01  7.31423372E-01  7.31423372E-01
  8.77674436E-01  9.09551221E-01  1.07251269E+00  1.25400461E+00  1.36228942E+00
  1.36228942E+00  1.47179301E+00  1.53501826E+00  1.53501827E+00  1.92739536E+00
  1.92739537E+00  1.92960879E+00  1.92960879E+00  2.32153188E+00  2.37056461E+00
  2.37056461E+00  2.76171642E+00  3.01575550E+00  3.01575550E+00  3.42664796E+00
  3.85049998E+00  4.59592429E+00  5.34480021E+00
Alpha MO coefficients                      R   N=        2304
  7.01594624E-01  3.41393235E-02  0.00000000E+00  0.00000000E+00  6.56250635E-04
 -5.70215780E-03  0.00000000E+00  0.00000000E+00 -5.00315623E-04  7.40425176E-04
  0.00000000E+00  0.00000000E+00 -1.30374298E-03 -7.14896045E-03 -7.14896045E-03
 -5.59293365E-03  0.00000000E+00  0.00000000E+00  0.00000000E+00  7.01594624E-01
  3.41393235E-02  0.00000000E+00  0.00000000E+00 -6.56250635E-04 -5.70215780E-03
  0.00000000E+00  0.00000000E+00  5.00315623E-04  7.40425176E-04  0.00000000E+00
  0.00000000E+00  1.30374298E-03 -7.14896045E-03 -7.14896045E-03 -5.59293365E-03
  0.00000000E+00  0.00000000E+00  0.00000000E+00 -8.83646547E-04  1.26621396E-03
  0.00000000E+00  0.00000000E+00  5.78206673E-04 -8.83646547E-04  1.26621396E-03
  0.00000000E+00  0.00000000E+00 -5.78206673E-04  7.02378100E-01  3.58366970E-02
  0.00000000E+00  0.00000000E+00 -7.79896313E-04 -1.77076574E-02  0.00000000E+00
  0.00000000E+00  6.84507944E-03  3.35032300E-02  0.00000000E+00  0.00000000E+00
 -7.83143435E-03 -6.92005746E-03 -6.92005746E-03 -4.88191956E-03  0.00000000E+00
  0.00000000E+00  0.00000000E+00 -7.02378100E-01 -3.58366970E-02  0.00000000E+00
  0.00000000E+00 -7.79896313E-04  1.77076574E-02  0.00000000E+00  0.00000000E+00
  6.84507944E-03 -3.35032300E-02  0.00000000E+00  0.00000000E+00 -7.83143435E-03
  6.92005746E-03  6.92005746E-03  4.88191956E-03  0.00000000E+00  0.00000000E+00
  0.00000000E+00 -1.00940633E-03 -1.02765594E-03  0.00000000E+00  0.00000000E+00
  6.56297105E-04  1.00940633E-03  1.02765594E-03  0.00000000E+00  0.00000000E+00
  6.56297105E-04 -1.74800505E-01  3.32661529E-01  0.00000000E+00  0.00000000E+00
 -1.51097503E-01  2.53881660E-01  0.00000000E+00  0.00000000E+00  2.22559379E-02
  2.62191925E-03  0.00000000E+00  0.00000000E+00  8.45853394E-03 -1.67286851E-02
 -1.67286851E-02  9.81639204E-03  0.00000000E+00  0.00000000E+00  0.00000000E+00
 -1.74800505E-01  3.32661529E-01  0.00000000E+00  0.00000000E+00  1.51097503E-01
  2.53881660E-01  0.00000000E+00  0.00000000E+00 -2.22559379E-02  2.62191925E-03
  0.00000000E+00  0.00000000E+00 -8.45853394E-03 -1.67286851E-02 -1.67286851E-02
  9.81639204E-03  0.00000000E+00  0.00000000E+00  0.00000000E+00  7.73650177E-02
 -1.00780970E-02  0.00000000E+00  0.00000000E+00 -8.06455869E-03  7.73650177E-02
 -1.00780970E-02  0.00000000E+00  0.00000000E+00  8.06455869E-03 -1.13882428E-01
  2.30303704E-01  0.00000000E+00  0.00000000E+00  2.06989016E-01  1.85188771E-01
  0.00000000E+00  0.00000000E+00  8.50905099E-02 -1.02280865E-01  0.00000000E+00
  0.00000000E+00  3.00753397E-02 -1.04434482E-02 -1.04434482E-02  4.89385617E-03
  0.00000000E+00  0.00000000E+00  0.00000000E+00  1.13882428E-01 -2.30303704E-01
  0.00000000E+00  0.00000000E+00  2.06989016E-01 -1.85188771E-01  0.00000000E+00
  0.00000000E+00  8.50905099E-02  1.02280865E-01  0.00000000E+00  0.00000000E+00
  3.00753397E-02  1.04434482E-02  1.04434482E-02 -4.89385617E-03  0.00000000E+00
  0.00000000E+00  0.00000000E+00  2.19719212E-01  1.08312647E-01  0.00000000E+00
  0.00000000E+00 -1.25579007E-02 -2.19719212E-01 -1.08312647E-01  0.00000000E+00
  0.00000000E+00 -1.25579007E-02  1.53801329E-03  8.94504615E-03  0.00000000E+00
  0.00000000E+00  3.89068676E-01  1.02135238E-02  0.00000000E+00  0.00000000E+00
  6.11822521E-02  4.65161674E-03  0.00000000E+00  0.00000000E+00  4.34852768E-03
  1.40161572E-03  1.40161572E-03  6.37743231E-03  0.00000000E+00  0.00000000E+00
  0.00000000E+00  1.53801329E-03  8.94504615E-03  0.00000000E+00  0.00000000E+00
 -3.89068676E-01  1.02135238E-02  0.00000000E+00  0.00000000E+00 -6.11822521E-02
  4.65161674E-03  0.00000000E+00  0.00000000E+00 -4.34852768E-03  1.40161572E-03
  1.40161572E-03  6.37743231E-03  0.00000000E+00  0.00000000E+00  0.00000000E+00
  2.25740830E-01  1.85467276E-01  0.00000000E+00  0.00000000E+00 -8.78819746E-03
  2.25740830E-01  1.85467276E-01  0.00000000E+00  0.00000000E+00  8.78819746E-03
  0.00000000E+00  0.00000000E+00  0.00000000E+00  4.21005534E-01  0.00000000E+00
  0.00000000E+00  0.00000000E+00  2.25268852E-01  0.00000000E+00  0.00000000E+00
  0.00000000E+00  4.60589591E-02  0.00000000E+00  0.00000000E+00  0.00000000E+00
  0.00000000E+00  0.00000000E+00  0.00000000E+00 -1.84706935E-02  0.00000000E+00
  0.00000000E+00  0.00000000E+00  4.21005534E-01  0.00000000E+00  0.00000000E+00
  0.00000000E+00  2.25268852E-01  0.00000000E+00  0.00000000E+00  0.00000000E+00
  4.60589591E-02  0.00000000E+00  0.00000000E+00  0.00000000E+00  0.00000000E+00
  0.00000000E+00  0.00000000E+00  1.84706935E-02  0.00000000E+00  0.00000000E+00
  0.00000000E+00  1.17099780E-02  0.00000000E+00  0.00000000E+00  0.00000000E+00
  0.00000000E+00  1.17099780E-02  0.00000000E+00  0.00000000E+00  0.00000000E+00
  4.21005534E-01  0.00000000E+00  0.00000000E+00  0.00000000E+00  2.25268852E-01
  0.00000000E+00  0.00000000E+00  0.00000000E+00  4.60589591E-02  0.00000000E+00
  0.00000000E+00  0.00000000E+00  0.00000000E+00  0.00000000E+00  0.00000000E+00
 -1.84706935E-02  0.00000000E+00  0.00000000E+00  0.00000000E+00  4.21005534E-01
  0.00000000E+00  0.00000000E+00  0.00000000E+00  2.25268852E-01  0.00000000E+00
  0.00000000E+00  0.00000000E+00  4.60589591E-02  0.00000000E+00  0.00000000E+00
  0.00000000E+00  0.00000000E+00  0.00000000E+00  0.00000000E+00  1.84706935E-02
  0.00000000E+00  0.00000000E+00  0.00000000E+00  1.17099780E-02  0.00000000E+00
  0.00000000E+00  0.00000000E+00  0.00000000E+00  1.17099780E-02  0.00000000E+00
  0.00000000E+00  0.00000000E+00  0.00000000E+00  0.00000000E+00  3.41713890E-01
  0.00000000E+00  0.00000000E+00  0.00000000E+00  4.30221317E-01  0.00000000E+00
  0.00000000E+00  0.00000000E+00  1.06302502E+00  0.00000000E+00  0.00000000E+00
  0.00000000E+00  0.00000000E+00  0.00000000E+00  0.00000000E+00  2.81495838E-02
  0.00000000E+00  0.00000000E+00  0.00000000E+00 -3.41713890E-01  0.00000000E+00
  0.00000000E+00  0.00000000E+00 -4.30221317E-01  0.00000000E+00  0.00000000E+00
  0.00000000E+00 -1.06302502E+00  0.00000000E+00  0.00000000E+00  0.00000000E+00
  0.00000000E+00  0.00000000E+00  0.00000000E+00  2.81495838E-02  0.00000000E+00
  0.00000000E+00  0.00000000E+00  2.29829359E-02  0.00000000E+00  0.00000000E+00
  0.00000000E+00  0.00000000E+00 -2.29829359E-02  0.00000000E+00  0.00000000E+00
  0.00000000E+00  3.41713890E-01  0.00000000E+00  0.00000000E+00  0.00000000E+00
  4.30221317E-01  0.00000000E+00  0.00000000E+00  0.00000000E+00  1.06302502E+00
  0.00000000E+00  0.00000000E+00  0.00000000E+00  0.00000000E+00  0.00000000E+00
  0.00000000E+00  2.81495838E-02  0.00000000E+00  0.00000000E+00  0.00000000E+00
 -3.41713890E-01  0.00000000E+00  0.00000000E+00  0.00000000E+00 -4.30221317E-01
  0.00000000E+00  0.00000000E+00  0.00000000E+00 -1.06302502E+00  0.00000000E+00
  0.00000000E+00  0.00000000E+00  0.00000000E+00  0.00000000E+00  0.00000000E+00
  2.81495838E-02  0.00000000E+00  0.00000000E+00  0.00000000E+00  2.29829359E-02
  0.00000000E+00  0.00000000E+00  0.00000000E+00  0.00000000E+00 -2.29829359E-02
  0.00000000E+00  0.00000000E+00 -5.73913005E-02  1.27136347E-01  0.00000000E+00
  0.00000000E+00  7.87353643E-02  4.49973500E-01  0.00000000E+00  0.00000000E+00
 -1.24928914E-02  1.69853142E+01  0.00000000E+00  0.00000000E+00 -4.76778911E+00
 -6.74147583E-04 -6.74147583E-04 -1.23404566E-02  0.00000000E+00  0.00000000E+00
  0.00000000E+00  5.73913005E-02 -1.27136347E-01  0.00000000E+00  0.00000000E+00
  7.87353643E-02 -4.49973500E-01  0.00000000E+00  0.00000000E+00 -1.24928914E-02
 -1.69853142E+01  0.00000000E+00  0.00000000E+00 -4.76778911E+00  6.74147583E-04
  6.74147583E-04  1.23404566E-02  0.00000000E+00  0.00000000E+00  0.00000000E+00
 -3.25621297E-02 -1.11188639E-01  0.00000000E+00  0.00000000E+00 -1.56464404E-02
  3.25621297E-02  1.11188639E-01  0.00000000E+00  0.00000000E+00 -1.56464404E-02
  3.95037364E-02 -8.30489164E-02  0.00000000E+00  0.00000000E+00 -1.00500639E-01
 -2.81599291E-01  0.00000000E+00  0.00000000E+00 -5.92671974E-02  8.12805115E-01
  0.00000000E+00  0.00000000E+00  8.02763940E-01  9.52823719E-03  9.52823719E-03
 -1.54639692E-03  0.00000000E+00  0.00000000E+00  0.00000000E+00  3.95037364E-02
 -8.30489164E-02  0.00000000E+00  0.00000000E+00  1.00500639E-01 -2.81599291E-01
  0.00000000E+00  0.00000000E+00  5.92671974E-02  8.12805115E-01  0.00000000E+00
  0.00000000E+00 -8.02763940E-01  9.52823719E-03  9.52823719E-03 -1.54639692E-03
  0.00000000E+00  0.00000000E+00  0.00000000E+00 -2.81490602E-02 -1.57323075E-01
  0.00000000E+00  0.00000000E+00  1.31984865E-02 -2.81490602E-02 -1.57323075E-01
  0.00000000E+00  0.00000000E+00 -1.31984865E-02  0.00000000E+00  0.00000000E+00
 -1.50104989E-01  0.00000000E+00  0.00000000E+00  0.00000000E+00 -2.08960963E-01
  0.00000000E+00  0.00000000E+00  0.00000000E+00  5.94038838E-01  0.00000000E+00
  0.00000000E+00  0.00000000E+00  0.00000000E+00  0.00000000E+00  0.00000000E+00
  1.17115962E-02  0.00000000E+00  0.00000000E+00  0.00000000E+00 -1.50104989E-01
  0.00000000E+00  0.00000000E+00  0.00000000E+00 -2.08960963E-01  0.00000000E+00
  0.00000000E+00  0.00000000E+00  5.94038838E-01  0.00000000E+00  0.00000000E+00
  0.00000000E+00  0.00000000E+00  0.00000000E+00  0.00000000E+00 -1.17115962E-02
  0.00000000E+00  0.00000000E+00  0.00000000E+00  3.14129546E-03  0.00000000E+00
  0.00000000E+00  0.00000000E+00  0.00000000E+00  3.14129546E-03  0.00000000E+00
  0.00000000E+00  0.00000000E+00  0.00000000E+00  0.00000000E+00 -1.50104989E-01
  0.00000000E+00  0.00000000E+00  0.00000000E+00 -2.08960963E-01  0.00000000E+00
  0.00000000E+00  0.00000000E+00  5.94038838E-01  0.00000000E+00  0.00000000E+00
  0.00000000E+00  0.00000000E+00  0.00000000E+00  0.00000000E+00  1.17115962E-02
  0.00000000E+00  0.00000000E+00  0.00000000E+00 -1.50104989E-01  0.00000000E+00
  0.00000000E+00  0.00000000E+00 -2.08960963E-01  0.00000000E+00  0.00000000E+00
  0.00000000E+00  5.94038838E-01  0.00000000E+00  0.00000000E+00  0.00000000E+00
  0.00000000E+00  0.00000000E+00  0.00000000E+00 -1.17115962E-02  0.00000000E+00
  0.00000000E+00  0.00000000E+00  3.14129546E-03  0.00000000E+00  0.00000000E+00
  0.00000000E+00  0.00000000E+00  3.14129546E-03  0.00000000E+00 -1.86465150E-02
  2.51728574E-02  0.00000000E+00  0.00000000E+00 -1.50973934E-01  9.70930418E-02
  0.00000000E+00  0.00000000E+00 -1.78273779E-01 -2.52976718E-01  0.00000000E+00
  0.00000000E+00  1.19823749E+00 -2.14656524E-02 -2.14656524E-02  1.66776738E-02
  0.00000000E+00  0.00000000E+00  0.00000000E+00 -1.86465150E-02  2.51728574E-02
  0.00000000E+00  0.00000000E+00  1.50973934E-01  9.70930418E-02  0.00000000E+00
  0.00000000E+00  1.78273779E-01 -2.52976718E-01  0.00000000E+00  0.00000000E+00
 -1.19823749E+00 -2.14656524E-02 -2.14656524E-02  1.66776738E-02  0.00000000E+00
  0.00000000E+00  0.00000000E+00  8.03948214E-02  4.03930948E-01  0.00000000E+00
  0.00000000E+00  8.27543472E-03  8.03948214E-02  4.03930948E-01  0.00000000E+00
  0.00000000E+00 -8.27543472E-03  0.00000000E+00  0.00000000E+00 -3.05057465E-01
  0.00000000E+00  0.00000000E+00  0.00000000E+00 -5.82294851E-01  0.00000000E+00
  0.00000000E+00  0.00000000E+00  2.09550920E+00  0.00000000E+00  0.00000000E+00
  0.00000000E+00  0.00000000E+00  0.00000000E+00  0.00000000E+00 -1.66684902E-02
  0.00000000E+00  0.00000000E+00  0.00000000E+00  3.05057465E-01  0.00000000E+00
  0.00000000E+00  0.00000000E+00  5.82294851E-01  0.00000000E+00  0.00000000E+00
  0.00000000E+00 -2.09550920E+00  0.00000000E+00  0.00000000E+00  0.00000000E+00
  0.00000000E+00  0.00000000E+00  0.00000000E+00 -1.66684902E-02  0.00000000E+00
  0.00000000E+00  0.00000000E+00 -8.55293709E-03  0.00000000E+00  0.00000000E+00
  0.00000000E+00  0.00000000E+00  8.55293709E-03  0.00000000E+00  0.00000000E+00
  0.00000000E+00  0.00000000E+00  0.00000000E+00 -3.05057465E-01  0.00000000E+00
  0.00000000E+00  0.00000000E+00 -5.82294851E-01  0.00000000E+00  0.00000000E+00
  0.00000000E+00  2.09550920E+00  0.00000000E+00  0.00000000E+00  0.00000000E+00
  0.00000000E+00  0.00000000E+00  0.00000000E+00 -1.66684902E-02  0.00000000E+00
  0.00000000E+00  0.00000000E+00  3.05057465E-01  0.00000000E+00  0.00000000E+00
  0.00000000E+00  5.82294851E-01  0.00000000E+00  0.00000000E+00  0.00000000E+00
 -2.09550920E+00  0.00000000E+00  0.00000000E+00  0.00000000E+00  0.00000000E+00
  0.00000000E+00  0.00000000E+00 -1.66684902E-02  0.00000000E+00  0.00000000E+00
  0.00000000E+00 -8.55293709E-03  0.00000000E+00  0.00000000E+00  0.00000000E+00
  0.00000000E+00  8.55293709E-03  0.00000000E+00 -5.33719866E-02  1.29319953E-01
  0.00000000E+00  0.00000000E+00 -2.17509473E-02 -8.48495349E-02  0.00000000E+00
  0.00000000E+00  7.29899177E-01  2.32366182E+01  0.00000000E+00  0.00000000E+00
 -5.17904834E+00  1.91578506E-02  1.91578506E-02 -4.42650779E-02  0.00000000E+00
  0.00000000E+00  0.00000000E+00  5.33719866E-02 -1.29319953E-01  0.00000000E+00
  0.00000000E+00 -2.17509473E-02  8.48495349E-02  0.00000000E+00  0.00000000E+00
  7.29899177E-01 -2.32366182E+01  0.00000000E+00  0.00000000E+00 -5.17904834E+00
 -1.91578506E-02 -1.91578506E-02  4.42650779E-02  0.00000000E+00  0.00000000E+00
  0.00000000E+00 -1.75908910E-01 -1.42206455E+00  0.00000000E+00  0.00000000E+00
 -6.10345115E-03  1.75908910E-01  1.42206455E+00  0.00000000E+00  0.00000000E+00
 -6.10345115E-03  9.23825396E-02 -1.61848116E-01  0.00000000E+00  0.00000000E+00
 -7.13267036E-02 -5.17935843E-01  0.00000000E+00  0.00000000E+00 -9.85561847E-01
  4.41716216E+01  0.00000000E+00  0.00000000E+00 -1.11048280E+01  3.31171604E-03
  3.31171604E-03  3.85843585E-02  0.00000000E+00  0.00000000E+00  0.00000000E+00
 -9.23825396E-02  1.61848116E-01  0.00000000E+00  0.00000000E+00 -7.13267036E-02
  5.17935843E-01  0.00000000E+00  0.00000000E+00 -9.85561847E-01 -4.41716216E+01
  0.00000000E+00  0.00000000E+00 -1.11048280E+01 -3.31171604E-03 -3.31171604E-03
 -3.85843585E-02  0.00000000E+00  0.00000000E+00  0.00000000E+00  1.10918062E-01
  1.19182560E+00  0.00000000E+00  0.00000000E+00  1.04827160E-02 -1.10918062E-01
 -1.19182560E+00  0.00000000E+00  0.00000000E+00  1.04827160E-02  6.27126152E-02
 -3.73605249E-02  0.00000000E+00  0.00000000E+00 -3.04434292E-01 -1.61782511E+00
  0.00000000E+00  0.00000000E+00 -7.44062632E-01 -3.57017617E-01  0.00000000E+00
  0.00000000E+00 -1.56392626E+00  3.15334133E-03  3.15334133E-03  2.15405873E-02
  0.00000000E+00  0.00000000E+00  0.00000000E+00  6.27126152E-02 -3.73605249E-02
  0.00000000E+00  0.00000000E+00  3.04434292E-01 -1.61782511E+00  0.00000000E+00
  0.00000000E+00  7.44062632E-01 -3.57017617E-01  0.00000000E+00  0.00000000E+00
  1.56392626E+00  3.15334133E-03  3.15334133E-03  2.15405873E-02  0.00000000E+00
  0.00000000E+00  0.00000000E+00  1.12262080E-01  1.92855864E+00  0.00000000E+00
  0.00000000E+00  1.07459170E-02  1.12262080E-01  1.92855864E+00  0.00000000E+00
  0.00000000E+00 -1.07459170E-02 -1.07967374E-01 -2.57484519E-02  0.00000000E+00
  0.00000000E+00 -2.63679490E-01  7.21936210E+00  0.00000000E+00  0.00000000E+00
 -6.36030692E+00  1.53411294E+00  0.00000000E+00  0.00000000E+00 -8.63349754E-01
  1.49216764E-02  1.49216764E-02 -9.25026056E-02  0.00000000E+00  0.00000000E+00
  0.00000000E+00  1.07967374E-01  2.57484519E-02  0.00000000E+00  0.00000000E+00
 -2.63679490E-01 -7.21936210E+00  0.00000000E+00  0.00000000E+00 -6.36030692E+00
 -1.53411294E+00  0.00000000E+00  0.00000000E+00 -8.63349754E-01 -1.49216764E-02
 -1.49216764E-02  9.25026056E-02  0.00000000E+00  0.00000000E+00  0.00000000E+00
 -3.05323140E-01  3.59082277E+00  0.00000000E+00  0.00000000E+00 -1.52253573E-02
  3.05323140E-01 -3.59082277E+00  0.00000000E+00  0.00000000E+00 -1.52253573E-02
  0.00000000E+00  0.00000000E+00 -7.19842352E-01  0.00000000E+00  0.00000000E+00
  0.00000000E+00  8.48878539E-01  0.00000000E+00  0.00000000E+00  0.00000000E+00