 Entering Gaussian System, Link 0=g16
 Input=etino.com
 Output=etino.log
 Initial command:
 /opt/g16/l1.exe "/home/montoya/Montoya/Orbitales/etino/Gau-13790.inp" -scrdir="/home/montoya/Montoya/Orbitales/etino/"
 Entering Link 1 = /opt/g16/l1.exe PID=     13792.
  
 Copyright (c) 1988-2017, Gaussian, Inc.  All Rights Reserved.
  
 This is part of the Gaussian(R) 16 program.  It is based on
 the Gaussian(R) 09 system (copyright 2009, Gaussian, Inc.),
 the Gaussian(R) 03 system (copyright 2003, Gaussian, Inc.),
 the Gaussian(R) 98 system (copyright 1998, Gaussian, Inc.),
 the Gaussian(R) 94 system (copyright 1995, Gaussian, Inc.),
 the Gaussian 92(TM) system (copyright 1992, Gaussian, Inc.),
 the Gaussian 90(TM) system (copyright 1990, Gaussian, Inc.),
 the Gaussian 88(TM) system (copyright 1988, Gaussian, Inc.),
 the Gaussian 86(TM) system (copyright 1986, Carnegie Mellon
 University), and the Gaussian 82(TM) system (copyright 1983,
 Carnegie Mellon University). Gaussian is a federally registered
 trademark of Gaussian, Inc.
  
 This software contains proprietary and confidential information,
 including trade secrets, belonging to Gaussian, Inc.
  
 This software is provided under written license and may be
 used, copied, transmitted, or stored only in accord with that
 written license.
  
 The following legend is applicable only to US Government
 contracts under FAR:
  
                    RESTRICTED RIGHTS LEGEND
  
 Use, reproduction and disclosure by the US Government is
 subject to restrictions as set forth in subparagraphs (a)
 and (c) of the Commercial Computer Software - Restricted
 Rights clause in FAR 52.227-19.
  
 Gaussian, Inc.
 340 Quinnipiac St., Bldg. 40, Wallingford CT 06492
  
  
 ---------------------------------------------------------------
 Warning -- This program may not be used in any manner that
 competes with the business of Gaussian, Inc. or will provide
 assistance to any competitor of Gaussian, Inc.  The licensee
 of this program is prohibited from giving any competitor of
 Gaussian, Inc. access to this program.  By using this program,
 the user acknowledges that Gaussian, Inc. is engaged in the
 business of creating and licensing software in the field of
 computational chemistry and represents and warrants to the
 licensee that it is not a competitor of Gaussian, Inc. and that
 it will not use this program in any manner prohibited above.
 ---------------------------------------------------------------
  

 Cite this work as:
 Gaussian 16, Revision B.01,
 M. J. Frisch, G. W. Trucks, H. B. Schlegel, G. E. Scuseria, 
 M. A. Robb, J. R. Cheeseman, G. Scalmani, V. Barone, 
 G. A. Petersson, H. Nakatsuji, X. Li, M. Caricato, A. V. Marenich, 
 J. Bloino, B. G. Janesko, R. Gomperts, B. Mennucci, H. P. Hratchian, 
 J. V. Ortiz, A. F. Izmaylov, J. L. Sonnenberg, D. Williams-Young, 
 F. Ding, F. Lipparini, F. Egidi, J. Goings, B. Peng, A. Petrone, 
 T. Henderson, D. Ranasinghe, V. G. Zakrzewski, J. Gao, N. Rega, 
 G. Zheng, W. Liang, M. Hada, M. Ehara, K. Toyota, R. Fukuda, 
 J. Hasegawa, M. Ishida, T. Nakajima, Y. Honda, O. Kitao, H. Nakai, 
 T. Vreven, K. Throssell, J. A. Montgomery, Jr., J. E. Peralta, 
 F. Ogliaro, M. J. Bearpark, J. J. Heyd, E. N. Brothers, K. N. Kudin, 
 V. N. Staroverov, T. A. Keith, R. Kobayashi, J. Normand, 
 K. Raghavachari, A. P. Rendell, J. C. Burant, S. S. Iyengar, 
 J. Tomasi, M. Cossi, J. M. Millam, M. Klene, C. Adamo, R. Cammi, 
 J. W. Ochterski, R. L. Martin, K. Morokuma, O. Farkas, 
 J. B. Foresman, and D. J. Fox, Gaussian, Inc., Wallingford CT, 2016.
 
 ******************************************
 Gaussian 16:  EM64L-G16RevB.01 20-Dec-2017
                18-Feb-2019 
 ******************************************
 %Chk=etino.chk
 --------------------------------
 #n B3LYP/6-31+G(d,p) Opt Pop=NPA
 --------------------------------
 1/18=20,19=15,26=3,38=1/1,3;
 2/9=110,12=2,17=6,18=5,40=1/2;
 3/5=1,6=6,7=111,11=2,25=1,30=1,71=1,74=-5/1,2,3;
 4//1;
 5/5=2,38=5/2;
 6/7=2,8=2,9=2,10=2,28=1,40=-1/1,7;
 7//1,2,3,16;
 1/18=20,19=15,26=3/3(2);
 2/9=110/2;
 99//99;
 2/9=110/2;
 3/5=1,6=6,7=111,11=2,25=1,30=1,71=1,74=-5/1,2,3;
 4/5=5,16=3,69=1/1;
 5/5=2,38=5/2;
 7//1,2,3,16;
 1/18=20,19=15,26=3/3(-5);
 2/9=110/2;
 6/7=2,8=2,9=2,10=2,19=2,28=1,40=-1/1,7;
 99/9=1/99;
 -----
 etino
 -----
 Symbolic Z-matrix:
 Charge =  0 Multiplicity = 1
 C                     1.14062   0.37188   0.24873 
 C                     1.98958  -0.32498  -0.24777 
 H                     0.39517   0.98378   0.68469 
 H                     2.73503  -0.93688  -0.68373 
 

 GradGradGradGradGradGradGradGradGradGradGradGradGradGradGradGradGradGrad
 Berny optimization.
 Initialization pass.
                           ----------------------------
                           !    Initial Parameters    !
                           ! (Angstroms and Degrees)  !
 --------------------------                            --------------------------
 ! Name  Definition              Value          Derivative Info.                !
 --------------------------------------------------------------------------------
 ! R1    R(1,2)                  1.2053         estimate D2E/DX2                !
 ! R2    R(1,3)                  1.0584         estimate D2E/DX2                !
 ! R3    R(2,4)                  1.0584         estimate D2E/DX2                !
 ! A1    L(2,1,3,-3,-1)        180.0002         estimate D2E/DX2                !
 ! A2    L(1,2,4,-3,-1)        180.0002         estimate D2E/DX2                !
 ! A3    L(2,1,3,-2,-2)        180.0002         estimate D2E/DX2                !
 ! A4    L(1,2,4,-2,-2)        180.0002         estimate D2E/DX2                !
 --------------------------------------------------------------------------------
 Trust Radius=3.00D-01 FncErr=1.00D-07 GrdErr=1.00D-06 EigMax=2.50D+02 EigMin=1.00D-04
 Number of steps in this run=     20 maximum allowed number of steps=    100.
 GradGradGradGradGradGradGradGradGradGradGradGradGradGradGradGradGradGrad

                          Input orientation:                          
 ---------------------------------------------------------------------
 Center     Atomic      Atomic             Coordinates (Angstroms)
 Number     Number       Type             X           Y           Z
 ---------------------------------------------------------------------
      1          6           0        1.140620    0.371880    0.248730
      2          6           0        1.989580   -0.324980   -0.247770
      3          1           0        0.395170    0.983780    0.684690
      4          1           0        2.735030   -0.936880   -0.683730
 ---------------------------------------------------------------------
                    Distance matrix (angstroms):
                    1          2          3          4
     1  C    0.000000
     2  C    1.205346   0.000000
     3  H    1.058385   2.263731   0.000000
     4  H    2.263731   1.058385   3.322116   0.000000
 Stoichiometry    C2H2
 Framework group  C*V[C*(HCCH)]
 Deg. of freedom     3
 Full point group                 C*V     NOp   4
 Largest Abelian subgroup         C2V     NOp   4
 Largest concise Abelian subgroup C1      NOp   1
                         Standard orientation:                         
 ---------------------------------------------------------------------
 Center     Atomic      Atomic             Coordinates (Angstroms)
 Number     Number       Type             X           Y           Z
 ---------------------------------------------------------------------
      1          6           0       -0.000000   -0.000000    0.602673
      2          6           0        0.000000    0.000000   -0.602673
      3          1           0       -0.000000   -0.000000    1.661058
      4          1           0        0.000000    0.000000   -1.661058
 ---------------------------------------------------------------------
 Rotational constants (GHZ):           0.0000000          35.3942513          35.3942513
 Standard basis: 6-31+G(d,p) (6D, 7F)
 There are    26 symmetry adapted cartesian basis functions of A1  symmetry.
 There are     2 symmetry adapted cartesian basis functions of A2  symmetry.
 There are    10 symmetry adapted cartesian basis functions of B1  symmetry.
 There are    10 symmetry adapted cartesian basis functions of B2  symmetry.
 There are    26 symmetry adapted basis functions of A1  symmetry.
 There are     2 symmetry adapted basis functions of A2  symmetry.
 There are    10 symmetry adapted basis functions of B1  symmetry.
 There are    10 symmetry adapted basis functions of B2  symmetry.
    48 basis functions,    78 primitive gaussians,    48 cartesian basis functions
     7 alpha electrons        7 beta electrons
       nuclear repulsion energy        24.7691808086 Hartrees.
 NAtoms=    4 NActive=    4 NUniq=    4 SFac= 1.00D+00 NAtFMM=   60 NAOKFM=F Big=F
 Integral buffers will be    131072 words long.
 Raffenetti 2 integral format.
 Two-electron integral symmetry is turned on.
 One-electron integrals computed using PRISM.
 NBasis=    48 RedAO= T EigKep=  1.33D-04  NBF=    26     2    10    10
 NBsUse=    48 1.00D-06 EigRej= -1.00D+00 NBFU=    26     2    10    10
 ExpMin= 4.38D-02 ExpMax= 3.05D+03 ExpMxC= 4.57D+02 IAcc=3 IRadAn=         5 AccDes= 0.00D+00
 Harris functional with IExCor=  402 and IRadAn=       5 diagonalized for initial guess.
 HarFok:  IExCor=  402 AccDes= 0.00D+00 IRadAn=         5 IDoV= 1 UseB2=F ITyADJ=14
 ICtDFT=  3500011 ScaDFX=  1.000000  1.000000  1.000000  1.000000
 FoFCou: FMM=F IPFlag=           0 FMFlag=      100000 FMFlg1=           0
         NFxFlg=           0 DoJE=T BraDBF=F KetDBF=T FulRan=T
         wScrn=  0.000000 ICntrl=       500 IOpCl=  0 I1Cent=   200000004 NGrid=           0
         NMat0=    1 NMatS0=      1 NMatT0=    0 NMatD0=    1 NMtDS0=    0 NMtDT0=    0
 Petite list used in FoFCou.
 Initial guess orbital symmetries:
       Occupied  (SG) (SG) (SG) (SG) (SG) (PI) (PI)
       Virtual   (PI) (PI) (SG) (SG) (SG) (PI) (PI) (SG) (PI) (PI)
                 (SG) (SG) (SG) (PI) (PI) (SG) (PI) (PI) (SG) (SG)
                 (SG) (SG) (PI) (PI) (DLTA) (DLTA) (SG) (DLTA)
                 (DLTA) (PI) (PI) (SG) (PI) (PI) (SG) (PI) (PI)
                 (SG) (SG) (SG) (SG)
 The electronic state of the initial guess is 1-SG.
 Keep R1 ints in memory in symmetry-blocked form, NReq=1569409.
 Requested convergence on RMS density matrix=1.00D-08 within 128 cycles.
 Requested convergence on MAX density matrix=1.00D-06.
 Requested convergence on             energy=1.00D-06.
 No special actions if energy rises.
 SCF Done:  E(RB3LYP) =  -77.3370256173     A.U. after    8 cycles
            NFock=  8  Conv=0.90D-09     -V/T= 2.0102

 **********************************************************************

            Population analysis using the SCF Density.

 **********************************************************************

 Orbital symmetries:
       Occupied  (SG) (SG) (SG) (SG) (SG) (PI) (PI)
       Virtual   (PI) (PI) (SG) (SG) (PI) (PI) (SG) (PI) (PI) (SG)
                 (SG) (SG) (SG) (PI) (PI) (SG) (PI) (PI) (SG) (SG)
                 (SG) (SG) (PI) (PI) (SG) (DLTA) (DLTA) (DLTA)
                 (DLTA) (PI) (PI) (SG) (PI) (PI) (SG) (PI) (PI)
                 (SG) (SG) (SG) (SG)
 The electronic state is 1-SG.
 Alpha  occ. eigenvalues --  -10.20674 -10.20433  -0.75889  -0.57730  -0.50441
 Alpha  occ. eigenvalues --   -0.29758  -0.29758
 Alpha virt. eigenvalues --    0.01338   0.01338   0.02249   0.02340   0.06918
 Alpha virt. eigenvalues --    0.06918   0.07465   0.13853   0.13853   0.15607
 Alpha virt. eigenvalues --    0.18869   0.25684   0.52837   0.65683   0.65683
 Alpha virt. eigenvalues --    0.66119   0.73208   0.73208   0.87807   0.91009
 Alpha virt. eigenvalues --    1.07833   1.26381   1.36262   1.36262   1.47448
 Alpha virt. eigenvalues --    1.53417   1.53417   1.92881   1.92881   1.93112
 Alpha virt. eigenvalues --    1.93112   2.33307   2.37975   2.37975   2.78054
 Alpha virt. eigenvalues --    3.03136   3.03136   3.44491   3.86472   4.61311
 Alpha virt. eigenvalues --    5.38369
          Condensed to atoms (all electrons):
               1          2          3          4
     1  C    4.776222   1.068718   0.342814  -0.005261
     2  C    1.068718   4.776222  -0.005261   0.342814
     3  H    0.342814  -0.005261   0.477782   0.002173
     4  H   -0.005261   0.342814   0.002173   0.477782
 Mulliken charges:
               1
     1  C   -0.182493
     2  C   -0.182493
     3  H    0.182493
     4  H    0.182493
 Sum of Mulliken charges =  -0.00000
 Mulliken charges with hydrogens summed into heavy atoms:
               1
     1  C   -0.000000
     2  C    0.000000
 Electronic spatial extent (au):  <R**2>=             61.1350
 Charge=             -0.0000 electrons
 Dipole moment (field-independent basis, Debye):
    X=              0.0000    Y=             -0.0000    Z=             -0.0000  Tot=              0.0000
 Quadrupole moment (field-independent basis, Debye-Ang):
   XX=            -13.8479   YY=            -13.8479   ZZ=             -7.0926
   XY=              0.0000   XZ=             -0.0000   YZ=              0.0000
 Traceless Quadrupole moment (field-independent basis, Debye-Ang):
   XX=             -2.2518   YY=             -2.2518   ZZ=              4.5035
   XY=              0.0000   XZ=             -0.0000   YZ=              0.0000
 Octapole moment (field-independent basis, Debye-Ang**2):
  XXX=              0.0000  YYY=             -0.0000  ZZZ=             -0.0000  XYY=              0.0000
  XXY=             -0.0000  XXZ=             -0.0000  XZZ=              0.0000  YZZ=             -0.0000
  YYZ=             -0.0000  XYZ=              0.0000
 Hexadecapole moment (field-independent basis, Debye-Ang**3):
 XXXX=            -18.8404 YYYY=            -18.8404 ZZZZ=            -39.5619 XXXY=              0.0000
 XXXZ=              0.0000 YYYX=              0.0000 YYYZ=              0.0000 ZZZX=              0.0000
 ZZZY=              0.0000 XXYY=             -6.2801 XXZZ=            -13.0471 YYZZ=            -13.0471
 XXYZ=              0.0000 YYXZ=              0.0000 ZZXY=              0.0000
 N-N= 2.476918080858D+01 E-N=-2.283834982221D+02  KE= 7.655537769902D+01
 Symmetry A1   KE= 7.218394529077D+01
 Symmetry A2   KE= 9.107337554915D-31
 Symmetry B1   KE= 2.185716204129D+00
 Symmetry B2   KE= 2.185716204129D+00
 ******************************Gaussian NBO Version 3.1******************************
             N A T U R A L   A T O M I C   O R B I T A L   A N D
          N A T U R A L   B O N D   O R B I T A L   A N A L Y S I S
 ******************************Gaussian NBO Version 3.1******************************
       /RESON  / : Allow strongly delocalized NBO set

 Analyzing the SCF density

 Job title: etino                                                           

 Storage needed:      7224 in NPA ( 104857496 available)
 GSVD:  LWork=         744 too small for GESVD, short by        2142 words or        2142 for optimal perf.


 NATURAL POPULATIONS:  Natural atomic orbital occupancies 
                                                          
   NAO  Atom  No  lang   Type(AO)    Occupancy      Energy
 ----------------------------------------------------------
     1    C    1  S      Cor( 1S)     1.99872     -10.06266
     2    C    1  S      Val( 2S)     1.02826      -0.18122
     3    C    1  S      Ryd( 4S)     0.00346       1.03271
     4    C    1  S      Ryd( 3S)     0.00012       0.43344
     5    C    1  S      Ryd( 5S)     0.00000       3.87332
     6    C    1  px     Val( 2p)     0.99898      -0.10487
     7    C    1  px     Ryd( 3p)     0.00012       0.20545
     8    C    1  px     Ryd( 4p)     0.00005       0.56912
     9    C    1  py     Val( 2p)     0.99898      -0.10487
    10    C    1  py     Ryd( 3p)     0.00012       0.20545
    11    C    1  py     Ryd( 4p)     0.00005       0.56912
    12    C    1  pz     Val( 2p)     1.21367       0.04034
    13    C    1  pz     Ryd( 3p)     0.00090       0.46827
    14    C    1  pz     Ryd( 4p)     0.00049       0.80323
    15    C    1  dxy    Ryd( 3d)     0.00000       1.73149
    16    C    1  dxz    Ryd( 3d)     0.00072       2.13855
    17    C    1  dyz    Ryd( 3d)     0.00072       2.13855
    18    C    1  dx2y2  Ryd( 3d)     0.00000       1.73149
    19    C    1  dz2    Ryd( 3d)     0.00082       3.60532

    20    C    2  S      Cor( 1S)     1.99872     -10.06266
    21    C    2  S      Val( 2S)     1.02826      -0.18122
    22    C    2  S      Ryd( 4S)     0.00346       1.03271
    23    C    2  S      Ryd( 3S)     0.00012       0.43344
    24    C    2  S      Ryd( 5S)     0.00000       3.87332
    25    C    2  px     Val( 2p)     0.99898      -0.10487
    26    C    2  px     Ryd( 3p)     0.00012       0.20545
    27    C    2  px     Ryd( 4p)     0.00005       0.56912
    28    C    2  py     Val( 2p)     0.99898      -0.10487
    29    C    2  py     Ryd( 3p)     0.00012       0.20545
    30    C    2  py     Ryd( 4p)     0.00005       0.56912
    31    C    2  pz     Val( 2p)     1.21367       0.04034
    32    C    2  pz     Ryd( 3p)     0.00090       0.46827
    33    C    2  pz     Ryd( 4p)     0.00049       0.80323
    34    C    2  dxy    Ryd( 3d)     0.00000       1.73149
    35    C    2  dxz    Ryd( 3d)     0.00072       2.13855
    36    C    2  dyz    Ryd( 3d)     0.00072       2.13855
    37    C    2  dx2y2  Ryd( 3d)     0.00000       1.73149
    38    C    2  dz2    Ryd( 3d)     0.00082       3.60532

    39    H    3  S      Val( 1S)     0.75225       0.10250
    40    H    3  S      Ryd( 2S)     0.00079       0.53676
    41    H    3  px     Ryd( 2p)     0.00013       2.20039
    42    H    3  py     Ryd( 2p)     0.00013       2.20039
    43    H    3  pz     Ryd( 2p)     0.00052       3.19041

    44    H    4  S      Val( 1S)     0.75225       0.10250
    45    H    4  S      Ryd( 2S)     0.00079       0.53676
    46    H    4  px     Ryd( 2p)     0.00013       2.20039
    47    H    4  py     Ryd( 2p)     0.00013       2.20039
    48    H    4  pz     Ryd( 2p)     0.00052       3.19041

 WARNING:  1 low occupancy (<1.9990e) core orbital  found on  C    1
           1 low occupancy (<1.9990e) core orbital  found on  C    2

 WARNING:  Population inversion found on atom  C    1
           Population inversion found on atom  C    2


 Summary of Natural Population Analysis:                  
                                                          
                                       Natural Population 
                Natural  -----------------------------------------------
    Atom  No    Charge         Core      Valence    Rydberg      Total
 -----------------------------------------------------------------------
      C    1   -0.24618      1.99872     4.23990    0.00756     6.24618
      C    2   -0.24618      1.99872     4.23990    0.00756     6.24618
      H    3    0.24618      0.00000     0.75225    0.00157     0.75382
      H    4    0.24618      0.00000     0.75225    0.00157     0.75382
 =======================================================================
   * Total *   -0.00000      3.99744     9.98428    0.01827    14.00000

                                 Natural Population      
 --------------------------------------------------------
   Core                       3.99744 ( 99.9361% of   4)
   Valence                    9.98428 ( 99.8428% of  10)
   Natural Minimal Basis     13.98173 ( 99.8695% of  14)
   Natural Rydberg Basis      0.01827 (  0.1305% of  14)
 --------------------------------------------------------

    Atom  No          Natural Electron Configuration
 ----------------------------------------------------------------------------
      C    1      [core]2S( 1.03)2p( 3.21)
      C    2      [core]2S( 1.03)2p( 3.21)
      H    3            1S( 0.75)
      H    4            1S( 0.75)


 NBO analysis skipped by request.
 Calling FoFJK, ICntrl=      2127 FMM=F ISym2X=1 I1Cent= 0 IOpClX= 0 NMat=1 NMatS=1 NMatT=0.
 ***** Axes restored to original set *****
 -------------------------------------------------------------------
 Center     Atomic                   Forces (Hartrees/Bohr)
 Number     Number              X              Y              Z
 -------------------------------------------------------------------
      1        6           0.000617173   -0.000506602   -0.000360942
      2        6          -0.000617173    0.000506602    0.000360942
      3        1          -0.004541193    0.003727602    0.002655832
      4        1           0.004541193   -0.003727602   -0.002655832
 -------------------------------------------------------------------
 Cartesian Forces:  Max     0.004541193 RMS     0.002656399

 GradGradGradGradGradGradGradGradGradGradGradGradGradGradGradGradGradGrad
 Berny optimization.
 FormGI is forming the generalized inverse of G from B-inverse, IUseBI=4.
 Internal  Forces:  Max     0.006447550 RMS     0.004038760
 Search for a local minimum.
 Step number   1 out of a maximum of   20
 All quantities printed in internal units (Hartrees-Bohrs-Radians)
 Mixed Optimization -- RFO/linear search
 Second derivative matrix not updated -- first step.
 The second derivative matrix:
                          R1        R2        R3        A1        A2
           R1           1.02182
           R2           0.00000   0.38738
           R3           0.00000   0.00000   0.38738
           A1           0.00000   0.00000   0.00000   0.00653
           A2           0.00000   0.00000   0.00000   0.00000   0.00653
           A3           0.00000   0.00000   0.00000   0.00000   0.00000
           A4           0.00000   0.00000   0.00000   0.00000   0.00000
                          A3        A4
           A3           0.00653
           A4           0.00000   0.00653
 ITU=  0
     Eigenvalues ---    0.00653   0.00653   0.00653   0.00653   0.38738
     Eigenvalues ---    0.38738   1.02182
 RFO step:  Lambda=-2.44862014D-04 EMin= 6.53038301D-03
 Linear search not attempted -- first point.
 Iteration  1 RMS(Cart)=  0.01044997 RMS(Int)=  0.00000000
 Iteration  2 RMS(Cart)=  0.00000000 RMS(Int)=  0.00000001
 ClnCor:  largest displacement from symmetrization is 5.40D-13 for atom     1.
 Variable       Old X    -DE/DX   Delta X   Delta X   Delta X     New X
                                 (Linear)    (Quad)   (Total)
    R1        2.27777   0.00557   0.00000   0.00545   0.00545   2.28323
    R2        2.00006   0.00645   0.00000   0.01663   0.01663   2.01669
    R3        2.00006   0.00645   0.00000   0.01663   0.01663   2.01669
    A1        3.14159   0.00000   0.00000   0.00000   0.00000   3.14159
    A2        3.14159  -0.00000   0.00000  -0.00000   0.00000   3.14159
    A3        3.14159   0.00000   0.00000   0.00000   0.00000   3.14159
    A4        3.14159  -0.00000   0.00000  -0.00000   0.00000   3.14159
         Item               Value     Threshold  Converged?
 Maximum Force            0.006448     0.000450     NO 
 RMS     Force            0.004039     0.000300     NO 
 Maximum Displacement     0.013635     0.001800     NO 
 RMS     Displacement     0.010450     0.001200     NO 
 Predicted change in Energy=-1.225024D-04
 GradGradGradGradGradGradGradGradGradGradGradGradGradGradGradGradGradGrad

                          Input orientation:                          
 ---------------------------------------------------------------------
 Center     Atomic      Atomic             Coordinates (Angstroms)
 Number     Number       Type             X           Y           Z
 ---------------------------------------------------------------------
      1          6           0        1.139604    0.372715    0.249323
      2          6           0        1.990596   -0.325815   -0.248363
      3          1           0        0.387954    0.989701    0.688912
      4          1           0        2.742246   -0.942801   -0.687952
 ---------------------------------------------------------------------
                    Distance matrix (angstroms):
                    1          2          3          4
     1  C    0.000000
     2  C    1.208231   0.000000
     3  H    1.067187   2.275418   0.000000
     4  H    2.275418   1.067187   3.342605   0.000000
 Stoichiometry    C2H2
 Framework group  D*H[C*(HC.CH)]
 Deg. of freedom     2
 Full point group                 D*H     NOp   8
 Omega: Change in point group or standard orientation.

 Old FWG=C*V  [C*(H1C1C1H1)]
 New FWG=D*H  [C*(H1C1.C1H1)]
 Largest Abelian subgroup         D2H     NOp   8
 Largest concise Abelian subgroup C2      NOp   2
                         Standard orientation:                         
 ---------------------------------------------------------------------
 Center     Atomic      Atomic             Coordinates (Angstroms)
 Number     Number       Type             X           Y           Z
 ---------------------------------------------------------------------
      1          6           0        0.000000   -0.000000    0.604115
      2          6           0       -0.000000   -0.000000   -0.604115
      3          1           0        0.000000   -0.000000    1.671302
      4          1           0       -0.000000   -0.000000   -1.671302
 ---------------------------------------------------------------------
 Rotational constants (GHZ):           0.0000000          35.1222402          35.1222402
 Standard basis: 6-31+G(d,p) (6D, 7F)
 There are    13 symmetry adapted cartesian basis functions of AG  symmetry.
 There are     1 symmetry adapted cartesian basis functions of B1G symmetry.
 There are     5 symmetry adapted cartesian basis functions of B2G symmetry.
 There are     5 symmetry adapted cartesian basis functions of B3G symmetry.
 There are     1 symmetry adapted cartesian basis functions of AU  symmetry.
 There are    13 symmetry adapted cartesian basis functions of B1U symmetry.
 There are     5 symmetry adapted cartesian basis functions of B2U symmetry.
 There are     5 symmetry adapted cartesian basis functions of B3U symmetry.
 There are    13 symmetry adapted basis functions of AG  symmetry.
 There are     1 symmetry adapted basis functions of B1G symmetry.
 There are     5 symmetry adapted basis functions of B2G symmetry.
 There are     5 symmetry adapted basis functions of B3G symmetry.
 There are     1 symmetry adapted basis functions of AU  symmetry.
 There are    13 symmetry adapted basis functions of B1U symmetry.
 There are     5 symmetry adapted basis functions of B2U symmetry.
 There are     5 symmetry adapted basis functions of B3U symmetry.
    48 basis functions,    78 primitive gaussians,    48 cartesian basis functions
     7 alpha electrons        7 beta electrons
       nuclear repulsion energy        24.6665773990 Hartrees.
 NAtoms=    4 NActive=    4 NUniq=    2 SFac= 4.00D+00 NAtFMM=   60 NAOKFM=F Big=F
 Integral buffers will be    131072 words long.
 Raffenetti 2 integral format.
 Two-electron integral symmetry is turned on.
 One-electron integrals computed using PRISM.
 NBasis=    48 RedAO= T EigKep=  1.34D-04  NBF=    13     1     5     5     1    13     5     5
 NBsUse=    48 1.00D-06 EigRej= -1.00D+00 NBFU=    13     1     5     5     1    13     5     5
 Initial guess from the checkpoint file:  "etino.chk"
 B after Tr=     0.000000   -0.000000   -0.000000
         Rot=    1.000000   -0.000000   -0.000000    0.000000 Ang=   0.00 deg.
 Initial guess orbital symmetries:
       Occupied  (SGG) (SGU) (SGG) (SGU) (SGG) (PIU) (PIU)
       Virtual   (PIG) (PIG) (SGU) (SGG) (PIU) (PIU) (SGG) (PIG)
                 (PIG) (SGU) (SGU) (SGG) (SGU) (PIU) (PIU) (SGG)
                 (PIG) (PIG) (SGU) (SGG) (SGG) (SGU) (PIU) (PIU)
                 (SGU) (DLTG) (DLTG) (DLTU) (DLTU) (PIG) (PIG)
                 (SGG) (PIU) (PIU) (SGU) (PIG) (PIG) (SGG) (SGU)
                 (SGG) (SGU)
 Keep R1 ints in memory in symmetry-blocked form, NReq=1570817.
 Requested convergence on RMS density matrix=1.00D-08 within 128 cycles.
 Requested convergence on MAX density matrix=1.00D-06.
 Requested convergence on             energy=1.00D-06.
 No special actions if energy rises.
 SCF Done:  E(RB3LYP) =  -77.3371367966     A.U. after    7 cycles
            NFock=  7  Conv=0.64D-09     -V/T= 2.0107
 Calling FoFJK, ICntrl=      2127 FMM=F ISym2X=1 I1Cent= 0 IOpClX= 0 NMat=1 NMatS=1 NMatT=0.
 ***** Axes restored to original set *****
 -------------------------------------------------------------------
 Center     Atomic                   Forces (Hartrees/Bohr)
 Number     Number              X              Y              Z
 -------------------------------------------------------------------
      1        6          -0.000144298    0.000118446    0.000084390
      2        6           0.000144298   -0.000118446   -0.000084390
      3        1           0.000392727   -0.000322367   -0.000229679
      4        1          -0.000392727    0.000322367    0.000229679
 -------------------------------------------------------------------
 Cartesian Forces:  Max     0.000392727 RMS     0.000242515

 GradGradGradGradGradGradGradGradGradGradGradGradGradGradGradGradGradGrad
 Berny optimization.
 Using GEDIIS/GDIIS optimizer.
 Internal  Forces:  Max     0.000557591 RMS     0.000326502
 Search for a local minimum.
 Step number   2 out of a maximum of   20
 All quantities printed in internal units (Hartrees-Bohrs-Radians)
 Mixed Optimization -- En-DIIS/RFO-DIIS
 Update second derivatives using D2CorX and points    1    2
 DE= -1.11D-04 DEPred=-1.23D-04 R= 9.08D-01
 TightC=F SS=  1.41D+00  RLast= 2.41D-02 DXNew= 5.0454D-01 7.2441D-02
 Trust test= 9.08D-01 RLast= 2.41D-02 DXMaxT set to 3.00D-01
 The second derivative matrix:
                          R1        R2        R3        A1        A2
           R1           1.02731
           R2           0.00974   0.40266
           R3           0.00974   0.01529   0.40266
           A1          -0.00000  -0.00000  -0.00000   0.00653
           A2           0.00000   0.00000   0.00000   0.00000   0.00653
           A3           0.00000   0.00000   0.00000  -0.00000  -0.00000
           A4          -0.00000  -0.00000  -0.00000  -0.00000   0.00000
                          A3        A4
           A3           0.00653
           A4           0.00000   0.00653
 ITU=  1  0
 Use linear search instead of GDIIS.
     Eigenvalues ---    0.00653   0.00653   0.00653   0.00653   0.38738
     Eigenvalues ---    0.41764   1.02762
 RFO step:  Lambda=-1.35387935D-08 EMin= 6.53038301D-03
 Quartic linear search produced a step of -0.07882.
 Iteration  1 RMS(Cart)=  0.00081569 RMS(Int)=  0.00000000
 SLEqS3 Cycle:   121 Max:0.469273E-08 RMS:0.283265E-08 Conv:0.946948E-14
 SLEqS3 Cycle:   121 Max:0.533513E-08 RMS:0.317504E-08 Conv:0.946948E-14
 Iteration  2 RMS(Cart)=  0.00000000 RMS(Int)=  0.00000001
 ClnCor:  largest displacement from symmetrization is 2.36D-09 for atom     2.
 Variable       Old X    -DE/DX   Delta X   Delta X   Delta X     New X
                                 (Linear)    (Quad)   (Total)
    R1        2.28323  -0.00035  -0.00043   0.00011  -0.00032   2.28290
    R2        2.01669  -0.00056  -0.00131  -0.00005  -0.00136   2.01533
    R3        2.01669  -0.00056  -0.00131  -0.00005  -0.00136   2.01533
    A1        3.14159   0.00000   0.00000   0.00000   0.00000   3.14159
    A2        3.14159  -0.00000   0.00000   0.00000   0.00000   3.14159
    A3        3.14159  -0.00000   0.00000  -0.00000   0.00000   3.14159
    A4        3.14159  -0.00000  -0.00000  -0.00000   0.00000   3.14159
         Item               Value     Threshold  Converged?
 Maximum Force            0.000558     0.000450     NO 
 RMS     Force            0.000327     0.000300     NO 
 Maximum Displacement     0.001069     0.001800     YES
 RMS     Displacement     0.000816     0.001200     YES
 Predicted change in Energy=-7.954809D-07
 GradGradGradGradGradGradGradGradGradGradGradGradGradGradGradGradGradGrad

                          Input orientation:                          
 ---------------------------------------------------------------------
 Center     Atomic      Atomic             Coordinates (Angstroms)
 Number     Number       Type             X           Y           Z
 ---------------------------------------------------------------------
      1          6           0        1.139664    0.372666    0.249288
      2          6           0        1.990536   -0.325766   -0.248328
      3          1           0        0.388520    0.989237    0.688581
      4          1           0        2.741680   -0.942337   -0.687621
 ---------------------------------------------------------------------
                    Distance matrix (angstroms):
                    1          2          3          4
     1  C    0.000000
     2  C    1.208060   0.000000
     3  H    1.066469   2.274529   0.000000
     4  H    2.274529   1.066469   3.340999   0.000000
 Stoichiometry    C2H2
 Framework group  D*H[C*(HC.CH)]
 Deg. of freedom     2
 Full point group                 D*H     NOp   8
 Largest Abelian subgroup         D2H     NOp   8
 Largest concise Abelian subgroup C2      NOp   2
                         Standard orientation:                         
 ---------------------------------------------------------------------
 Center     Atomic      Atomic             Coordinates (Angstroms)
 Number     Number       Type             X           Y           Z
 ---------------------------------------------------------------------
      1          6           0        0.000000    0.000000    0.604030
      2          6           0        0.000000   -0.000000   -0.604030
      3          1           0        0.000000    0.000000    1.670499
      4          1           0        0.000000   -0.000000   -1.670499
 ---------------------------------------------------------------------
 Rotational constants (GHZ):           0.0000000          35.1414767          35.1414767
 Standard basis: 6-31+G(d,p) (6D, 7F)
 There are    13 symmetry adapted cartesian basis functions of AG  symmetry.
 There are     1 symmetry adapted cartesian basis functions of B1G symmetry.
 There are     5 symmetry adapted cartesian basis functions of B2G symmetry.
 There are     5 symmetry adapted cartesian basis functions of B3G symmetry.
 There are     1 symmetry adapted cartesian basis functions of AU  symmetry.
 There are    13 symmetry adapted cartesian basis functions of B1U symmetry.
 There are     5 symmetry adapted cartesian basis functions of B2U symmetry.
 There are     5 symmetry adapted cartesian basis functions of B3U symmetry.
 There are    13 symmetry adapted basis functions of AG  symmetry.
 There are     1 symmetry adapted basis functions of B1G symmetry.
 There are     5 symmetry adapted basis functions of B2G symmetry.
 There are     5 symmetry adapted basis functions of B3G symmetry.
 There are     1 symmetry adapted basis functions of AU  symmetry.
 There are    13 symmetry adapted basis functions of B1U symmetry.
 There are     5 symmetry adapted basis functions of B2U symmetry.
 There are     5 symmetry adapted basis functions of B3U symmetry.
    48 basis functions,    78 primitive gaussians,    48 cartesian basis functions
     7 alpha electrons        7 beta electrons
       nuclear repulsion energy        24.6739702723 Hartrees.
 NAtoms=    4 NActive=    4 NUniq=    2 SFac= 4.00D+00 NAtFMM=   60 NAOKFM=F Big=F
 Integral buffers will be    131072 words long.
 Raffenetti 2 integral format.
 Two-electron integral symmetry is turned on.
 One-electron integrals computed using PRISM.
 NBasis=    48 RedAO= T EigKep=  1.34D-04  NBF=    13     1     5     5     1    13     5     5
 NBsUse=    48 1.00D-06 EigRej= -1.00D+00 NBFU=    13     1     5     5     1    13     5     5
 Initial guess from the checkpoint file:  "etino.chk"
 B after Tr=     0.000000    0.000000    0.000000
         Rot=    1.000000    0.000000    0.000000    0.000000 Ang=   0.00 deg.
 Initial guess orbital symmetries:
       Occupied  (SGG) (SGU) (SGG) (SGU) (SGG) (PIU) (PIU)
       Virtual   (PIG) (PIG) (SGU) (SGG) (PIU) (PIU) (SGG) (PIG)
                 (PIG) (SGU) (SGU) (SGG) (SGU) (PIU) (PIU) (SGG)
                 (PIG) (PIG) (SGU) (SGG) (SGG) (SGU) (PIU) (PIU)
                 (SGU) (DLTG) (DLTG) (DLTU) (DLTU) (PIG) (PIG)
                 (SGG) (PIU) (PIU) (SGU) (PIG) (PIG) (SGG) (SGU)
                 (SGG) (SGU)
 Keep R1 ints in memory in symmetry-blocked form, NReq=1570817.
 Requested convergence on RMS density matrix=1.00D-08 within 128 cycles.
 Requested convergence on MAX density matrix=1.00D-06.
 Requested convergence on             energy=1.00D-06.
 No special actions if energy rises.
 SCF Done:  E(RB3LYP) =  -77.3371376100     A.U. after    5 cycles
            NFock=  5  Conv=0.79D-08     -V/T= 2.0107
 Calling FoFJK, ICntrl=      2127 FMM=F ISym2X=1 I1Cent= 0 IOpClX= 0 NMat=1 NMatS=1 NMatT=0.
 ***** Axes restored to original set *****
 -------------------------------------------------------------------
 Center     Atomic                   Forces (Hartrees/Bohr)
 Number     Number              X              Y              Z
 -------------------------------------------------------------------
      1        6           0.000008208   -0.000006737   -0.000004800
      2        6          -0.000008208    0.000006737    0.000004800
      3        1          -0.000001015    0.000000833    0.000000594
      4        1           0.000001015   -0.000000833   -0.000000594
 -------------------------------------------------------------------
 Cartesian Forces:  Max     0.000008208 RMS     0.000004794

 GradGradGradGradGradGradGradGradGradGradGradGradGradGradGradGradGradGrad
 Berny optimization.
 Using GEDIIS/GDIIS optimizer.
 Internal  Forces:  Max     0.000010212 RMS     0.000003936
 Search for a local minimum.
 Step number   3 out of a maximum of   20
 All quantities printed in internal units (Hartrees-Bohrs-Radians)
 Mixed Optimization -- En-DIIS/RFO-DIIS
 Swapping is turned off.
 Update second derivatives using D2CorX and points    1    2    3
 DE= -8.13D-07 DEPred=-7.95D-07 R= 1.02D+00
 Trust test= 1.02D+00 RLast= 1.95D-03 DXMaxT set to 3.00D-01
 The second derivative matrix:
                          R1        R2        R3        A1        A2
           R1           1.02286
           R2           0.00499   0.39912
           R3           0.00499   0.01174   0.39912
           A1          -0.00000  -0.00000  -0.00000   0.00653
           A2           0.00000   0.00000   0.00000   0.00000   0.00653
           A3           0.00000   0.00000   0.00000  -0.00000  -0.00000
           A4          -0.00000   0.00000   0.00000   0.00000  -0.00000
                          A3        A4
           A3           0.00653
           A4          -0.00000   0.00653
 ITU=  0  1  0
     Eigenvalues ---    0.00653   0.00653   0.00653   0.00653   0.38738
     Eigenvalues ---    0.41078   1.02294
 En-DIIS/RFO-DIIS/Sim-DIIS IScMMF=       -3 using points:     3    2
 RFO step:  Lambda=-1.07557253D-10.
 DidBck=F Rises=F RFO-DIIS coefs:    0.99825    0.00175
 Iteration  1 RMS(Cart)=  0.00000278 RMS(Int)=  0.00000000
 Iteration  2 RMS(Cart)=  0.00000000 RMS(Int)=  0.00000001
 ClnCor:  largest displacement from symmetrization is 6.97D-12 for atom     2.
 Variable       Old X    -DE/DX   Delta X   Delta X   Delta X     New X
                                 (Linear)    (Quad)   (Total)
    R1        2.28290  -0.00001   0.00000  -0.00001  -0.00001   2.28289
    R2        2.01533   0.00000   0.00000   0.00000   0.00000   2.01534
    R3        2.01533   0.00000   0.00000   0.00000   0.00000   2.01534
    A1        3.14159   0.00000  -0.00000   0.00000   0.00000   3.14159
    A2        3.14159  -0.00000  -0.00000   0.00000   0.00000   3.14159
    A3        3.14159   0.00000  -0.00000   0.00000   0.00000   3.14159
    A4        3.14159  -0.00000  -0.00000  -0.00000   0.00000   3.14159
         Item               Value     Threshold  Converged?
 Maximum Force            0.000010     0.000450     YES
 RMS     Force            0.000004     0.000300     YES
 Maximum Displacement     0.000004     0.001800     YES
 RMS     Displacement     0.000003     0.001200     YES
 Predicted change in Energy=-5.638793D-11
 Optimization completed.
    -- Stationary point found.
                           ----------------------------
                           !   Optimized Parameters   !
                           ! (Angstroms and Degrees)  !
 --------------------------                            --------------------------
 ! Name  Definition              Value          Derivative Info.                !
 --------------------------------------------------------------------------------
 ! R1    R(1,2)                  1.2081         -DE/DX =    0.0                 !
 ! R2    R(1,3)                  1.0665         -DE/DX =    0.0                 !
 ! R3    R(2,4)                  1.0665         -DE/DX =    0.0                 !
 ! A1    L(2,1,3,-3,-1)        180.0            -DE/DX =    0.0                 !
 ! A2    L(1,2,4,-3,-1)        180.0            -DE/DX =    0.0                 !
 ! A3    L(2,1,3,-2,-2)        180.0            -DE/DX =    0.0                 !
 ! A4    L(1,2,4,-2,-2)        180.0            -DE/DX =    0.0                 !
 --------------------------------------------------------------------------------
 GradGradGradGradGradGradGradGradGradGradGradGradGradGradGradGradGradGrad

                          Input orientation:                          
 ---------------------------------------------------------------------
 Center     Atomic      Atomic             Coordinates (Angstroms)
 Number     Number       Type             X           Y           Z
 ---------------------------------------------------------------------
      1          6           0        1.139664    0.372666    0.249288
      2          6           0        1.990536   -0.325766   -0.248328
      3          1           0        0.388520    0.989237    0.688581
      4          1           0        2.741680   -0.942337   -0.687621
 ---------------------------------------------------------------------
                    Distance matrix (angstroms):
                    1          2          3          4
     1  C    0.000000
     2  C    1.208060   0.000000
     3  H    1.066469   2.274529   0.000000
     4  H    2.274529   1.066469   3.340999   0.000000
 Stoichiometry    C2H2
 Framework group  D*H[C*(HC.CH)]
 Deg. of freedom     2
 Full point group                 D*H     NOp   8
 Largest Abelian subgroup         D2H     NOp   8
 Largest concise Abelian subgroup C2      NOp   2
                         Standard orientation:                         
 ---------------------------------------------------------------------
 Center     Atomic      Atomic             Coordinates (Angstroms)
 Number     Number       Type             X           Y           Z
 ---------------------------------------------------------------------
      1          6           0        0.000000   -0.000000    0.604030
      2          6           0        0.000000   -0.000000   -0.604030
      3          1           0        0.000000   -0.000000    1.670499
      4          1           0        0.000000   -0.000000   -1.670499
 ---------------------------------------------------------------------
 Rotational constants (GHZ):           0.0000000          35.1414767          35.1414767

 **********************************************************************

            Population analysis using the SCF Density.

 **********************************************************************

 Orbital symmetries:
       Occupied  (SGG) (SGU) (SGG) (SGU) (SGG) (PIU) (PIU)
       Virtual   (PIG) (PIG) (SGU) (SGG) (PIU) (PIU) (SGG) (PIG)
                 (PIG) (SGU) (SGU) (SGG) (SGU) (PIU) (PIU) (SGG)
                 (PIG) (PIG) (SGU) (SGG) (SGG) (SGU) (PIU) (PIU)
                 (SGU) (DLTG) (DLTG) (DLTU) (DLTU) (PIG) (PIG)
                 (SGG) (PIU) (PIU) (SGU) (PIG) (PIG) (SGG) (SGU)
                 (SGG) (SGU)
 The electronic state is 1-SGG.
 Alpha  occ. eigenvalues --  -10.20803 -10.20566  -0.75803  -0.57531  -0.50253
 Alpha  occ. eigenvalues --   -0.29707  -0.29707
 Alpha virt. eigenvalues --    0.01291   0.01291   0.02163   0.02338   0.06923
 Alpha virt. eigenvalues --    0.06923   0.07392   0.13820   0.13820   0.15425
 Alpha virt. eigenvalues --    0.18702   0.25422   0.52762   0.65718   0.65718
 Alpha virt. eigenvalues --    0.66179   0.73142   0.73142   0.87767   0.90955
 Alpha virt. eigenvalues --    1.07251   1.25400   1.36229   1.36229   1.47179
 Alpha virt. eigenvalues --    1.53502   1.53502   1.92740   1.92740   1.92961
 Alpha virt. eigenvalues --    1.92961   2.32153   2.37056   2.37056   2.76172
 Alpha virt. eigenvalues --    3.01576   3.01576   3.42665   3.85050   4.59592
 Alpha virt. eigenvalues --    5.34480
          Condensed to atoms (all electrons):
               1          2          3          4
     1  C    4.777699   1.070539   0.340632  -0.003252
     2  C    1.070539   4.777699  -0.003252   0.340632
     3  H    0.340632  -0.003252   0.474919   0.002082
     4  H   -0.003252   0.340632   0.002082   0.474919
 Mulliken charges:
               1
     1  C   -0.185619
     2  C   -0.185619
     3  H    0.185619
     4  H    0.185619
 Sum of Mulliken charges =   0.00000
 Mulliken charges with hydrogens summed into heavy atoms:
               1
     1  C    0.000000
     2  C    0.000000
 Electronic spatial extent (au):  <R**2>=             61.4415
 Charge=              0.0000 electrons
 Dipole moment (field-independent basis, Debye):
    X=              0.0000    Y=             -0.0000    Z=              0.0000  Tot=              0.0000
 Quadrupole moment (field-independent basis, Debye-Ang):
   XX=            -13.8822   YY=            -13.8822   ZZ=             -7.0398
   XY=              0.0000   XZ=             -0.0000   YZ=             -0.0000
 Traceless Quadrupole moment (field-independent basis, Debye-Ang):
   XX=             -2.2808   YY=             -2.2808   ZZ=              4.5616
   XY=              0.0000   XZ=             -0.0000   YZ=             -0.0000
 Octapole moment (field-independent basis, Debye-Ang**2):
  XXX=             -0.0000  YYY=              0.0000  ZZZ=             -0.0000  XYY=             -0.0000
  XXY=              0.0000  XXZ=             -0.0000  XZZ=              0.0000  YZZ=              0.0000
  YYZ=             -0.0000  XYZ=              0.0000
 Hexadecapole moment (field-independent basis, Debye-Ang**3):
 XXXX=            -18.9240 YYYY=            -18.9240 ZZZZ=            -39.5853 XXXY=              0.0000
 XXXZ=              0.0000 YYYX=              0.0000 YYYZ=             -0.0000 ZZZX=             -0.0000
 ZZZY=             -0.0000 XXYY=             -6.3080 XXZZ=            -13.1663 YYZZ=            -13.1663
 XXYZ=             -0.0000 YYXZ=              0.0000 ZZXY=              0.0000
 N-N= 2.467397027229D+01 E-N=-2.281674465874D+02  KE= 7.651840124713D+01
 Symmetry AG   KE= 3.784790818166D+01
 Symmetry B1G  KE= 5.967635668981D-33
 Symmetry B2G  KE= 2.413558770596D-19
 Symmetry B3G  KE= 9.567346436271D-20
 Symmetry AU   KE= 6.073551045515D-33
 Symmetry B1U  KE= 3.430239727397D+01
 Symmetry B2U  KE= 2.184047895746D+00
 Symmetry B3U  KE= 2.184047895746D+00
 ******************************Gaussian NBO Version 3.1******************************
             N A T U R A L   A T O M I C   O R B I T A L   A N D
          N A T U R A L   B O N D   O R B I T A L   A N A L Y S I S
 ******************************Gaussian NBO Version 3.1******************************
       /RESON  / : Allow strongly delocalized NBO set

 Analyzing the SCF density

 Job title: etino                                                           

 Storage needed:      7224 in NPA ( 104857496 available)
 GSVD:  LWork=         744 too small for GESVD, short by        2142 words or        2142 for optimal perf.


 NATURAL POPULATIONS:  Natural atomic orbital occupancies 
                                                          
   NAO  Atom  No  lang   Type(AO)    Occupancy      Energy
 ----------------------------------------------------------
     1    C    1  S      Cor( 1S)     1.99872     -10.06530
     2    C    1  S      Val( 2S)     1.03058      -0.18466
     3    C    1  S      Ryd( 4S)     0.00352       1.01439
     4    C    1  S      Ryd( 3S)     0.00012       0.43536
     5    C    1  S      Ryd( 5S)     0.00000       3.89484
     6    C    1  px     Val( 2p)     0.99898      -0.10532
     7    C    1  px     Ryd( 3p)     0.00011       0.20915
     8    C    1  px     Ryd( 4p)     0.00005       0.56553
     9    C    1  py     Val( 2p)     0.99898      -0.10532
    10    C    1  py     Ryd( 3p)     0.00011       0.20915
    11    C    1  py     Ryd( 4p)     0.00005       0.56553
    12    C    1  pz     Val( 2p)     1.21407       0.03530
    13    C    1  pz     Ryd( 3p)     0.00088       0.46767
    14    C    1  pz     Ryd( 4p)     0.00051       0.79454
    15    C    1  dxy    Ryd( 3d)     0.00000       1.73121
    16    C    1  dxz    Ryd( 3d)     0.00072       2.13111
    17    C    1  dyz    Ryd( 3d)     0.00072       2.13111
    18    C    1  dx2y2  Ryd( 3d)     0.00000       1.73121
    19    C    1  dz2    Ryd( 3d)     0.00082       3.57058

    20    C    2  S      Cor( 1S)     1.99872     -10.06530
    21    C    2  S      Val( 2S)     1.03058      -0.18466
    22    C    2  S      Ryd( 4S)     0.00352       1.01439
    23    C    2  S      Ryd( 3S)     0.00012       0.43536
    24    C    2  S      Ryd( 5S)     0.00000       3.89484
    25    C    2  px     Val( 2p)     0.99898      -0.10532
    26    C    2  px     Ryd( 3p)     0.00011       0.20915
    27    C    2  px     Ryd( 4p)     0.00005       0.56553
    28    C    2  py     Val( 2p)     0.99898      -0.10532
    29    C    2  py     Ryd( 3p)     0.00011       0.20915
    30    C    2  py     Ryd( 4p)     0.00005       0.56553
    31    C    2  pz     Val( 2p)     1.21407       0.03530
    32    C    2  pz     Ryd( 3p)     0.00088       0.46767
    33    C    2  pz     Ryd( 4p)     0.00051       0.79454
    34    C    2  dxy    Ryd( 3d)     0.00000       1.73121
    35    C    2  dxz    Ryd( 3d)     0.00072       2.13111
    36    C    2  dyz    Ryd( 3d)     0.00072       2.13111
    37    C    2  dx2y2  Ryd( 3d)     0.00000       1.73121
    38    C    2  dz2    Ryd( 3d)     0.00082       3.57058

    39    H    3  S      Val( 1S)     0.74947       0.09599
    40    H    3  S      Ryd( 2S)     0.00078       0.54176
    41    H    3  px     Ryd( 2p)     0.00013       2.19458
    42    H    3  py     Ryd( 2p)     0.00013       2.19458
    43    H    3  pz     Ryd( 2p)     0.00052       3.16999

    44    H    4  S      Val( 1S)     0.74947       0.09599
    45    H    4  S      Ryd( 2S)     0.00078       0.54176
    46    H    4  px     Ryd( 2p)     0.00013       2.19458
    47    H    4  py     Ryd( 2p)     0.00013       2.19458
    48    H    4  pz     Ryd( 2p)     0.00052       3.16999

 WARNING:  1 low occupancy (<1.9990e) core orbital  found on  C    1
           1 low occupancy (<1.9990e) core orbital  found on  C    2

 WARNING:  Population inversion found on atom  C    1
           Population inversion found on atom  C    2


 Summary of Natural Population Analysis:                  
                                                          
                                       Natural Population 
                Natural  -----------------------------------------------
    Atom  No    Charge         Core      Valence    Rydberg      Total
 -----------------------------------------------------------------------
      C    1   -0.24897      1.99872     4.24261    0.00764     6.24897
      C    2   -0.24897      1.99872     4.24261    0.00764     6.24897
      H    3    0.24897      0.00000     0.74947    0.00156     0.75103
      H    4    0.24897      0.00000     0.74947    0.00156     0.75103
 =======================================================================
   * Total *   -0.00000      3.99743     9.98416    0.01840    14.00000

                                 Natural Population      
 --------------------------------------------------------
   Core                       3.99743 ( 99.9358% of   4)
   Valence                    9.98416 ( 99.8416% of  10)
   Natural Minimal Basis     13.98160 ( 99.8686% of  14)
   Natural Rydberg Basis      0.01840 (  0.1314% of  14)
 --------------------------------------------------------

    Atom  No          Natural Electron Configuration
 ----------------------------------------------------------------------------
      C    1      [core]2S( 1.03)2p( 3.21)
      C    2      [core]2S( 1.03)2p( 3.21)
      H    3            1S( 0.75)
      H    4            1S( 0.75)


 NBO analysis skipped by request.
 1\1\GINC-DYME\FOpt\RB3LYP\6-31+G(d,p)\C2H2\MONTOYA\18-Feb-2019\0\\#n B
 3LYP/6-31+G(d,p) Opt Pop=NPA\\etino\\0,1\C,1.1396642915,0.3726655213,0
 .2492881347\C,1.9905357085,-0.3257655213,-0.2483281347\H,0.3885197378,
 0.9892365605,0.6885810093\H,2.7416802622,-0.9423365605,-0.6876210093\\
 Version=EM64L-G16RevB.01\State=1-SGG\HF=-77.3371376\RMSD=7.938e-09\RMS
 F=4.794e-06\Dipole=0.,0.,0.\Quadrupole=0.8279096,0.0046566,-0.8325663,
 -2.0714981,-1.4758954,1.211477\PG=D*H [C*(H1C1.C1H1)]\\@


 Luck is a matter of preparation meeting opportunity.
                                    -- Oprah Winfrey
 Job cpu time:       0 days  0 hours  0 minutes 12.3 seconds.
 Elapsed time:       0 days  0 hours  0 minutes 13.8 seconds.
 File lengths (MBytes):  RWF=     17 Int=      0 D2E=      0 Chk=      2 Scr=      2
 Normal termination of Gaussian 16 at Mon Feb 18 11:24:18 2019.
