 Entering Gaussian System, Link 0=g16
 Input=Butano.gjf
 Output=Butano.log
 Initial command:
 /opt//g16/l1.exe "/mnt/d/User/Documents/Proyectos/Web/PDB/Rotacion de enlaces/Butano/Gau-127.inp" -scrdir="/mnt/d/User/Documents/Proyectos/Web/PDB/Rotacion de enlaces/Butano/"
 Entering Link 1 = /opt//g16/l1.exe PID=       129.
  
 Copyright (c) 1988-2017, Gaussian, Inc.  All Rights Reserved.
  
 This is part of the Gaussian(R) 16 program.  It is based on
 the Gaussian(R) 09 system (copyright 2009, Gaussian, Inc.),
 the Gaussian(R) 03 system (copyright 2003, Gaussian, Inc.),
 the Gaussian(R) 98 system (copyright 1998, Gaussian, Inc.),
 the Gaussian(R) 94 system (copyright 1995, Gaussian, Inc.),
 the Gaussian 92(TM) system (copyright 1992, Gaussian, Inc.),
 the Gaussian 90(TM) system (copyright 1990, Gaussian, Inc.),
 the Gaussian 88(TM) system (copyright 1988, Gaussian, Inc.),
 the Gaussian 86(TM) system (copyright 1986, Carnegie Mellon
 University), and the Gaussian 82(TM) system (copyright 1983,
 Carnegie Mellon University). Gaussian is a federally registered
 trademark of Gaussian, Inc.
  
 This software contains proprietary and confidential information,
 including trade secrets, belonging to Gaussian, Inc.
  
 This software is provided under written license and may be
 used, copied, transmitted, or stored only in accord with that
 written license.
  
 The following legend is applicable only to US Government
 contracts under FAR:
  
                    RESTRICTED RIGHTS LEGEND
  
 Use, reproduction and disclosure by the US Government is
 subject to restrictions as set forth in subparagraphs (a)
 and (c) of the Commercial Computer Software - Restricted
 Rights clause in FAR 52.227-19.
  
 Gaussian, Inc.
 340 Quinnipiac St., Bldg. 40, Wallingford CT 06492
  
  
 ---------------------------------------------------------------
 Warning -- This program may not be used in any manner that
 competes with the business of Gaussian, Inc. or will provide
 assistance to any competitor of Gaussian, Inc.  The licensee
 of this program is prohibited from giving any competitor of
 Gaussian, Inc. access to this program.  By using this program,
 the user acknowledges that Gaussian, Inc. is engaged in the
 business of creating and licensing software in the field of
 computational chemistry and represents and warrants to the
 licensee that it is not a competitor of Gaussian, Inc. and that
 it will not use this program in any manner prohibited above.
 ---------------------------------------------------------------
  

 Cite this work as:
 Gaussian 16, Revision B.01,
 M. J. Frisch, G. W. Trucks, H. B. Schlegel, G. E. Scuseria, 
 M. A. Robb, J. R. Cheeseman, G. Scalmani, V. Barone, 
 G. A. Petersson, H. Nakatsuji, X. Li, M. Caricato, A. V. Marenich, 
 J. Bloino, B. G. Janesko, R. Gomperts, B. Mennucci, H. P. Hratchian, 
 J. V. Ortiz, A. F. Izmaylov, J. L. Sonnenberg, D. Williams-Young, 
 F. Ding, F. Lipparini, F. Egidi, J. Goings, B. Peng, A. Petrone, 
 T. Henderson, D. Ranasinghe, V. G. Zakrzewski, J. Gao, N. Rega, 
 G. Zheng, W. Liang, M. Hada, M. Ehara, K. Toyota, R. Fukuda, 
 J. Hasegawa, M. Ishida, T. Nakajima, Y. Honda, O. Kitao, H. Nakai, 
 T. Vreven, K. Throssell, J. A. Montgomery, Jr., J. E. Peralta, 
 F. Ogliaro, M. J. Bearpark, J. J. Heyd, E. N. Brothers, K. N. Kudin, 
 V. N. Staroverov, T. A. Keith, R. Kobayashi, J. Normand, 
 K. Raghavachari, A. P. Rendell, J. C. Burant, S. S. Iyengar, 
 J. Tomasi, M. Cossi, J. M. Millam, M. Klene, C. Adamo, R. Cammi, 
 J. W. Ochterski, R. L. Martin, K. Morokuma, O. Farkas, 
 J. B. Foresman, and D. J. Fox, Gaussian, Inc., Wallingford CT, 2016.
 
 ******************************************
 Gaussian 16:  ES64L-G16RevB.01 20-Dec-2017
                14-Oct-2019 
 ******************************************
 %nprocshared=12
 Will use up to   12 processors via shared memory.
 %chk=Butano.chk
 ------------------------------------------------
 # opt=modredundant b3lyp/3-21g geom=connectivity
 ------------------------------------------------
 1/18=120,19=15,26=3,38=1,57=2/1,3;
 2/9=110,12=2,17=6,18=5,40=1/2;
 3/5=5,11=2,25=1,30=1,71=1,74=-5/1,2,3;
 4//1;
 5/5=2,38=5/2;
 6/7=2,8=2,9=2,10=2,28=1/1;
 7//1,2,3,16;
 1/18=20,19=15,26=3/3(2);
 2/9=110/2;
 99//99;
 2/9=110/2;
 3/5=5,11=2,25=1,30=1,71=1,74=-5/1,2,3;
 4/5=5,16=3,69=1/1;
 5/5=2,38=5/2;
 7//1,2,3,16;
 1/18=20,19=15,26=3/3(-5);
 2/9=110/2;
 6/7=2,8=2,9=2,10=2,19=2,28=1/1;
 99/9=1/99;
 -------------------
 Title Card Required
 -------------------
 Symbolic Z-matrix:
 Charge =  0 Multiplicity = 1
 C                    -3.80645  -1.02151   0. 
 H                    -3.4498   -2.03032   0. 
 H                    -3.44978  -0.51711  -0.87365 
 H                    -4.87645  -1.02149   0. 
 C                    -3.29311  -0.29555   1.2574 
 H                    -2.22311  -0.29726   1.25838 
 H                    -3.65138  -0.79882   2.13106 
 C                    -3.80413   1.15719   1.256 
 H                    -4.87412   1.1589    1.25464 
 H                    -3.44555   1.66057   0.38254 
 C                    -3.29123   1.88299   2.51367 
 H                    -2.22123   1.88122   2.51507 
 H                    -3.64621   2.89239   2.51265 
 H                    -3.64987   1.37967   3.38714 
 
 The following ModRedundant input section has been read:
 D       1       5       8      11 S  36 10.000                                
 

 GradGradGradGradGradGradGradGradGradGradGradGradGradGradGradGradGradGrad
 Berny optimization.
 Initialization pass.
                           ----------------------------
                           !    Initial Parameters    !
                           ! (Angstroms and Degrees)  !
 --------------------------                            --------------------------
 ! Name  Definition              Value          Derivative Info.                !
 --------------------------------------------------------------------------------
 ! R1    R(1,2)                  1.07           estimate D2E/DX2                !
 ! R2    R(1,3)                  1.07           estimate D2E/DX2                !
 ! R3    R(1,4)                  1.07           estimate D2E/DX2                !
 ! R4    R(1,5)                  1.54           estimate D2E/DX2                !
 ! R5    R(5,6)                  1.07           estimate D2E/DX2                !
 ! R6    R(5,7)                  1.07           estimate D2E/DX2                !
 ! R7    R(5,8)                  1.54           estimate D2E/DX2                !
 ! R8    R(8,9)                  1.07           estimate D2E/DX2                !
 ! R9    R(8,10)                 1.07           estimate D2E/DX2                !
 ! R10   R(8,11)                 1.54           estimate D2E/DX2                !
 ! R11   R(11,12)                1.07           estimate D2E/DX2                !
 ! R12   R(11,13)                1.07           estimate D2E/DX2                !
 ! R13   R(11,14)                1.07           estimate D2E/DX2                !
 ! A1    A(2,1,3)              109.4712         estimate D2E/DX2                !
 ! A2    A(2,1,4)              109.4712         estimate D2E/DX2                !
 ! A3    A(2,1,5)              109.4712         estimate D2E/DX2                !
 ! A4    A(3,1,4)              109.4712         estimate D2E/DX2                !
 ! A5    A(3,1,5)              109.4713         estimate D2E/DX2                !
 ! A6    A(4,1,5)              109.4712         estimate D2E/DX2                !
 ! A7    A(1,5,6)              109.4712         estimate D2E/DX2                !
 ! A8    A(1,5,7)              109.4712         estimate D2E/DX2                !
 ! A9    A(1,5,8)              109.4712         estimate D2E/DX2                !
 ! A10   A(6,5,7)              109.4712         estimate D2E/DX2                !
 ! A11   A(6,5,8)              109.4713         estimate D2E/DX2                !
 ! A12   A(7,5,8)              109.4712         estimate D2E/DX2                !
 ! A13   A(5,8,9)              109.4712         estimate D2E/DX2                !
 ! A14   A(5,8,10)             109.4712         estimate D2E/DX2                !
 ! A15   A(5,8,11)             109.4712         estimate D2E/DX2                !
 ! A16   A(9,8,10)             109.4712         estimate D2E/DX2                !
 ! A17   A(9,8,11)             109.4713         estimate D2E/DX2                !
 ! A18   A(10,8,11)            109.4712         estimate D2E/DX2                !
 ! A19   A(8,11,12)            109.4712         estimate D2E/DX2                !
 ! A20   A(8,11,13)            109.4712         estimate D2E/DX2                !
 ! A21   A(8,11,14)            109.4712         estimate D2E/DX2                !
 ! A22   A(12,11,13)           109.4713         estimate D2E/DX2                !
 ! A23   A(12,11,14)           109.4712         estimate D2E/DX2                !
 ! A24   A(13,11,14)           109.4712         estimate D2E/DX2                !
 ! D1    D(2,1,5,6)             59.8889         estimate D2E/DX2                !
 ! D2    D(2,1,5,7)            -60.1111         estimate D2E/DX2                !
 ! D3    D(2,1,5,8)            179.8889         estimate D2E/DX2                !
 ! D4    D(3,1,5,6)            -60.1111         estimate D2E/DX2                !
 ! D5    D(3,1,5,7)            179.8889         estimate D2E/DX2                !
 ! D6    D(3,1,5,8)             59.8889         estimate D2E/DX2                !
 ! D7    D(4,1,5,6)            179.8889         estimate D2E/DX2                !
 ! D8    D(4,1,5,7)             59.8889         estimate D2E/DX2                !
 ! D9    D(4,1,5,8)            -60.1111         estimate D2E/DX2                !
 ! D10   D(1,5,8,9)             59.9786         estimate D2E/DX2                !
 ! D11   D(1,5,8,10)           -60.0214         estimate D2E/DX2                !
 ! D12   D(1,5,8,11)           179.9786         Scan                            !
 ! D13   D(6,5,8,9)            179.9786         estimate D2E/DX2                !
 ! D14   D(6,5,8,10)            59.9786         estimate D2E/DX2                !
 ! D15   D(6,5,8,11)           -60.0214         estimate D2E/DX2                !
 ! D16   D(7,5,8,9)            -60.0214         estimate D2E/DX2                !
 ! D17   D(7,5,8,10)           179.9786         estimate D2E/DX2                !
 ! D18   D(7,5,8,11)            59.9786         estimate D2E/DX2                !
 ! D19   D(5,8,11,12)           59.9952         estimate D2E/DX2                !
 ! D20   D(5,8,11,13)          179.9953         estimate D2E/DX2                !
 ! D21   D(5,8,11,14)          -60.0048         estimate D2E/DX2                !
 ! D22   D(9,8,11,12)          179.9952         estimate D2E/DX2                !
 ! D23   D(9,8,11,13)          -60.0048         estimate D2E/DX2                !
 ! D24   D(9,8,11,14)           59.9952         estimate D2E/DX2                !
 ! D25   D(10,8,11,12)         -60.0048         estimate D2E/DX2                !
 ! D26   D(10,8,11,13)          59.9953         estimate D2E/DX2                !
 ! D27   D(10,8,11,14)         179.9952         estimate D2E/DX2                !
 --------------------------------------------------------------------------------
 Trust Radius=3.00D-01 FncErr=1.00D-07 GrdErr=1.00D-06 EigMax=2.50D+02 EigMin=1.00D-04
 Number of optimizations in scan=  37
 Number of steps in this run=     74 maximum allowed number of steps=    100.
 GradGradGradGradGradGradGradGradGradGradGradGradGradGradGradGradGradGrad

                          Input orientation:                          
 ---------------------------------------------------------------------
 Center     Atomic      Atomic             Coordinates (Angstroms)
 Number     Number       Type             X           Y           Z
 ---------------------------------------------------------------------
      1          6           0       -3.806451   -1.021505    0.000000
      2          1           0       -3.449797   -2.030315    0.000000
      3          1           0       -3.449779   -0.517107   -0.873652
      4          1           0       -4.876451   -1.021492    0.000000
      5          6           0       -3.293109   -0.295549    1.257405
      6          1           0       -2.223111   -0.297256    1.258383
      7          1           0       -3.651378   -0.798817    2.131055
      8          6           0       -3.804125    1.157193    1.255998
      9          1           0       -4.874123    1.158899    1.254643
     10          1           0       -3.445549    1.660570    0.382536
     11          6           0       -3.291225    1.882994    2.513673
     12          1           0       -2.221228    1.881215    2.515070
     13          1           0       -3.646214    2.892391    2.512654
     14          1           0       -3.649870    1.379666    3.387135
 ---------------------------------------------------------------------
                    Distance matrix (angstroms):
                    1          2          3          4          5
     1  C    0.000000
     2  H    1.070000   0.000000
     3  H    1.070000   1.747302   0.000000
     4  H    1.070000   1.747303   1.747303   0.000000
     5  C    1.540000   2.148263   2.148263   2.148263   0.000000
     6  H    2.148263   2.468153   2.469538   3.024609   1.070000
     7  H    2.148263   2.469538   3.024610   2.468154   1.070000
     8  C    2.514809   3.444313   2.732078   2.733877   1.540000
     9  H    2.732804   3.711324   3.060620   2.515600   2.148263
    10  H    2.733151   3.710658   2.514021   3.063865   2.148263
    11  C    3.875581   4.653782   4.154467   4.155423   2.514809
    12  H    4.155033   4.809889   4.329517   4.669207   2.732938
    13  H    4.653783   5.530375   4.809401   4.810967   3.444314
    14  H    4.154856   4.810477   4.668200   4.329290   2.733016
                    6          7          8          9         10
     6  H    0.000000
     7  H    1.747303   0.000000
     8  C    2.148263   2.148263   0.000000
     9  H    3.024610   2.468979   1.070000   0.000000
    10  H    2.468713   3.024610   1.070000   1.747303   0.000000
    11  C    2.733151   2.732804   1.540000   2.148263   2.148263
    12  H    2.514956   3.061923   2.148263   3.024610   2.468875
    13  H    3.711101   3.710885   2.148263   2.468876   2.468816
    14  H    3.062563   2.514663   2.148263   2.468817   3.024610
                   11         12         13         14
    11  C    0.000000
    12  H    1.070000   0.000000
    13  H    1.070000   1.747303   0.000000
    14  H    1.070000   1.747303   1.747303   0.000000
 Stoichiometry    C4H10
 Framework group  C1[X(C4H10)]
 Deg. of freedom    36
 Full point group                 C1      NOp   1
 Largest Abelian subgroup         C1      NOp   1
 Largest concise Abelian subgroup C1      NOp   1
                         Standard orientation:                         
 ---------------------------------------------------------------------
 Center     Atomic      Atomic             Coordinates (Angstroms)
 Number     Number       Type             X           Y           Z
 ---------------------------------------------------------------------
      1          6           0       -1.933553    0.128084    0.000127
      2          1           0       -2.693619   -0.625040   -0.001828
      3          1           0       -2.034603    0.739064   -0.872450
      4          1           0       -2.035847    0.735783    0.874849
      5          6           0       -0.546964   -0.541969   -0.000143
      6          1           0       -0.445408   -1.151194   -0.873889
      7          1           0       -0.445178   -1.151425    0.873414
      8          6           0        0.546964    0.541969   -0.000143
      9          1           0        0.445178    1.151426    0.873414
     10          1           0        0.445408    1.151194   -0.873889
     11          6           0        1.933553   -0.128084    0.000127
     12          1           0        2.035307   -0.737606   -0.873388
     13          1           0        2.693620    0.625042    0.000044
     14          1           0        2.035141   -0.737244    0.873914
 ---------------------------------------------------------------------
 Rotational constants (GHZ):          23.0583297           3.7383896           3.4902860
 Standard basis: 3-21G (6D, 7F)
 There are    56 symmetry adapted cartesian basis functions of A   symmetry.
 There are    56 symmetry adapted basis functions of A   symmetry.
    56 basis functions,    90 primitive gaussians,    56 cartesian basis functions
    17 alpha electrons       17 beta electrons
       nuclear repulsion energy       131.8273036856 Hartrees.
 NAtoms=   14 NActive=   14 NUniq=   14 SFac= 1.00D+00 NAtFMM=   60 NAOKFM=F Big=F
 Integral buffers will be    131072 words long.
 Raffenetti 2 integral format.
 Two-electron integral symmetry is turned on.
 One-electron integrals computed using PRISM.
 NBasis=    56 RedAO= T EigKep=  1.14D-02  NBF=    56
 NBsUse=    56 1.00D-06 EigRej= -1.00D+00 NBFU=    56
 ExpMin= 1.83D-01 ExpMax= 1.72D+02 ExpMxC= 1.72D+02 IAcc=3 IRadAn=         5 AccDes= 0.00D+00
 Harris functional with IExCor=  402 and IRadAn=       5 diagonalized for initial guess.
 HarFok:  IExCor=  402 AccDes= 0.00D+00 IRadAn=         5 IDoV= 1 UseB2=F ITyADJ=14
 ICtDFT=  3500011 ScaDFX=  1.000000  1.000000  1.000000  1.000000
 FoFCou: FMM=F IPFlag=           0 FMFlag=      100000 FMFlg1=           0
         NFxFlg=           0 DoJE=T BraDBF=F KetDBF=T FulRan=T
         wScrn=  0.000000 ICntrl=       500 IOpCl=  0 I1Cent=   200000004 NGrid=           0
         NMat0=    1 NMatS0=      1 NMatT0=    0 NMatD0=    1 NMtDS0=    0 NMtDT0=    0
 Petite list used in FoFCou.
 Requested convergence on RMS density matrix=1.00D-08 within 128 cycles.
 Requested convergence on MAX density matrix=1.00D-06.
 Requested convergence on             energy=1.00D-06.
 No special actions if energy rises.
 Integral accuracy reduced to 1.0D-05 until final iterations.
 Initial convergence to 1.0D-05 achieved.  Increase integral accuracy.
 SCF Done:  E(RB3LYP) =  -157.597486523     A.U. after   11 cycles
            NFock= 11  Conv=0.21D-08     -V/T= 2.0068

 **********************************************************************

            Population analysis using the SCF Density.

 **********************************************************************

 Orbital symmetries:
       Occupied  (A) (A) (A) (A) (A) (A) (A) (A) (A) (A) (A) (A)
                 (A) (A) (A) (A) (A)
       Virtual   (A) (A) (A) (A) (A) (A) (A) (A) (A) (A) (A) (A)
                 (A) (A) (A) (A) (A) (A) (A) (A) (A) (A) (A) (A)
                 (A) (A) (A) (A) (A) (A) (A) (A) (A) (A) (A) (A)
                 (A) (A) (A)
 The electronic state is 1-A.
 Alpha  occ. eigenvalues --  -10.10238 -10.10175 -10.09377 -10.09352  -0.79427
 Alpha  occ. eigenvalues --   -0.72313  -0.62789  -0.57848  -0.47490  -0.42769
 Alpha  occ. eigenvalues --   -0.41440  -0.41389  -0.36696  -0.35280  -0.32901
 Alpha  occ. eigenvalues --   -0.32806  -0.30953
 Alpha virt. eigenvalues --    0.12088   0.15167   0.16179   0.17690   0.19649
 Alpha virt. eigenvalues --    0.21581   0.21638   0.22360   0.23086   0.23282
 Alpha virt. eigenvalues --    0.26319   0.27325   0.27498   0.68068   0.68199
 Alpha virt. eigenvalues --    0.68231   0.71524   0.76113   0.76838   0.78857
 Alpha virt. eigenvalues --    0.82142   0.84469   0.92202   0.97514   0.98475
 Alpha virt. eigenvalues --    1.07188   1.08584   1.09356   1.11687   1.12728
 Alpha virt. eigenvalues --    1.14250   1.16560   1.18913   1.19097   1.30248
 Alpha virt. eigenvalues --    1.63907   1.92777   2.05445   2.31508
          Condensed to atoms (all electrons):
               1          2          3          4          5          6
     1  C    5.330674   0.368835   0.371211   0.371205   0.281418  -0.042334
     2  H    0.368835   0.536903  -0.027772  -0.027766  -0.038785  -0.001833
     3  H    0.371211  -0.027772   0.537627  -0.029370  -0.043961  -0.002999
     4  H    0.371205  -0.027766  -0.029370   0.537620  -0.043941   0.004037
     5  C    0.281418  -0.038785  -0.043961  -0.043941   5.361493   0.374976
     6  H   -0.042334  -0.001833  -0.002999   0.004037   0.374976   0.552254
     7  H   -0.042321  -0.001809   0.004038  -0.003028   0.374971  -0.031776
     8  C   -0.075866   0.004283  -0.002852  -0.002824   0.285533  -0.045701
     9  H   -0.001365  -0.000021  -0.000273   0.004426  -0.045718   0.004259
    10  H   -0.001378  -0.000022   0.004444  -0.000272  -0.045697  -0.003429
    11  C    0.004519  -0.000117  -0.000010  -0.000011  -0.075866  -0.001371
    12  H   -0.000010   0.000001  -0.000000   0.000005  -0.002838   0.004434
    13  H   -0.000117   0.000001   0.000001   0.000001   0.004283  -0.000022
    14  H   -0.000011   0.000001   0.000005  -0.000000  -0.002838  -0.000272
               7          8          9         10         11         12
     1  C   -0.042321  -0.075866  -0.001365  -0.001378   0.004519  -0.000010
     2  H   -0.001809   0.004283  -0.000021  -0.000022  -0.000117   0.000001
     3  H    0.004038  -0.002852  -0.000273   0.004444  -0.000010  -0.000000
     4  H   -0.003028  -0.002824   0.004426  -0.000272  -0.000011   0.000005
     5  C    0.374971   0.285533  -0.045718  -0.045697  -0.075866  -0.002838
     6  H   -0.031776  -0.045701   0.004259  -0.003429  -0.001371   0.004434
     7  H    0.552252  -0.045714  -0.003425   0.004259  -0.001372  -0.000272
     8  C   -0.045714   5.361493   0.374979   0.374968   0.281418  -0.043952
     9  H   -0.003425   0.374979   0.552258  -0.031776  -0.042329   0.004037
    10  H    0.004259   0.374968  -0.031776   0.552248  -0.042325  -0.003013
    11  C   -0.001372   0.281418  -0.042329  -0.042325   5.330673   0.371208
    12  H   -0.000272  -0.043952   0.004037  -0.003013   0.371208   0.537625
    13  H   -0.000021  -0.038785  -0.001820  -0.001821   0.368835  -0.027770
    14  H    0.004436  -0.043950  -0.003014   0.004037   0.371207  -0.029370
              13         14
     1  C   -0.000117  -0.000011
     2  H    0.000001   0.000001
     3  H    0.000001   0.000005
     4  H    0.000001  -0.000000
     5  C    0.004283  -0.002838
     6  H   -0.000022  -0.000272
     7  H   -0.000021   0.004436
     8  C   -0.038785  -0.043950
     9  H   -0.001820  -0.003014
    10  H   -0.001821   0.004037
    11  C    0.368835   0.371207
    12  H   -0.027770  -0.029370
    13  H    0.536903  -0.027768
    14  H   -0.027768   0.537622
 Mulliken charges:
               1
     1  C   -0.564459
     2  H    0.188100
     3  H    0.189912
     4  H    0.189919
     5  C   -0.383030
     6  H    0.189778
     7  H    0.189781
     8  C   -0.383030
     9  H    0.189782
    10  H    0.189778
    11  C   -0.564459
    12  H    0.189916
    13  H    0.188099
    14  H    0.189915
 Sum of Mulliken charges =  -0.00000
 Mulliken charges with hydrogens summed into heavy atoms:
               1
     1  C    0.003471
     5  C   -0.003471
     8  C   -0.003471
    11  C    0.003471
 Electronic spatial extent (au):  <R**2>=            414.3489
 Charge=             -0.0000 electrons
 Dipole moment (field-independent basis, Debye):
    X=             -0.0000    Y=             -0.0000    Z=              0.0000  Tot=              0.0000
 Quadrupole moment (field-independent basis, Debye-Ang):
   XX=            -28.9778   YY=            -28.1049   ZZ=            -27.5340
   XY=              0.2764   XZ=             -0.0000   YZ=              0.0000
 Traceless Quadrupole moment (field-independent basis, Debye-Ang):
   XX=             -0.7722   YY=              0.1006   ZZ=              0.6715
   XY=              0.2764   XZ=             -0.0000   YZ=              0.0000
 Octapole moment (field-independent basis, Debye-Ang**2):
  XXX=             -0.0000  YYY=              0.0000  ZZZ=              0.0032  XYY=              0.0000
  XXY=              0.0000  XXZ=             -0.0012  XZZ=             -0.0000  YZZ=             -0.0000
  YYZ=             -0.0024  XYZ=             -0.0012
 Hexadecapole moment (field-independent basis, Debye-Ang**3):
 XXXX=           -433.1926 YYYY=            -85.4596 ZZZZ=            -52.6028 XXXY=              6.4941
 XXXZ=              0.0040 YYYX=              0.8844 YYYZ=             -0.0022 ZZZX=             -0.0069
 ZZZY=              0.0009 XXYY=            -83.1079 XXZZ=            -79.7202 YYZZ=            -20.6857
 XXYZ=              0.0051 YYXZ=              0.0048 ZZXY=             -1.8341
 N-N= 1.318273036856D+02 E-N=-6.274958213665D+02  KE= 1.565340042172D+02
 Calling FoFJK, ICntrl=      2127 FMM=F ISym2X=0 I1Cent= 0 IOpClX= 0 NMat=1 NMatS=1 NMatT=0.
 ***** Axes restored to original set *****
 -------------------------------------------------------------------
 Center     Atomic                   Forces (Hartrees/Bohr)
 Number     Number              X              Y              Z
 -------------------------------------------------------------------
      1        6           0.008888664    0.003002422    0.016278383
      2        1           0.003988834   -0.017945226   -0.003832014
      3        1           0.004746201    0.006751187   -0.015996078
      4        1          -0.017824072   -0.001214745   -0.002183527
      5        6          -0.017030286    0.009549195   -0.022399148
      6        1           0.018550540   -0.000354374    0.002413842
      7        1          -0.004093906   -0.008317492    0.016251763
      8        6           0.017022683   -0.009551906    0.022403834
      9        1          -0.018550430    0.000362097   -0.002420932
     10        1           0.004103377    0.008313202   -0.016250469
     11        6          -0.008885127   -0.003001237   -0.016280655
     12        1           0.017824176    0.001193583    0.002201158
     13        1          -0.003970126    0.017951807    0.003820586
     14        1          -0.004770528   -0.006738512    0.015993257
 -------------------------------------------------------------------
 Cartesian Forces:  Max     0.022403834 RMS     0.011825384

 GradGradGradGradGradGradGradGradGradGradGradGradGradGradGradGradGradGrad
 Berny optimization.
 FormGI is forming the generalized inverse of G from B-inverse, IUseBI=4.
 Internal  Forces:  Max     0.018553983 RMS     0.007870603
 Search for a local minimum.
 Step number   1 out of a maximum of   74 on scan point     1 out of    37
 All quantities printed in internal units (Hartrees-Bohrs-Radians)
 Mixed Optimization -- RFO/linear search
 Second derivative matrix not updated -- first step.
 ITU=  0
     Eigenvalues ---    0.00237   0.00237   0.01589   0.03840   0.04896
     Eigenvalues ---    0.04896   0.05720   0.05720   0.05720   0.05720
     Eigenvalues ---    0.07655   0.07655   0.10127   0.11701   0.16000
     Eigenvalues ---    0.16000   0.16000   0.16000   0.16000   0.16000
     Eigenvalues ---    0.21948   0.21948   0.28519   0.28519   0.28519
     Eigenvalues ---    0.37230   0.37230   0.37230   0.37230   0.37230
     Eigenvalues ---    0.37230   0.37230   0.37230   0.37230   0.37230
     Eigenvalues --- 1000.000001000.000001000.000001000.000001000.00000
     Eigenvalues --- 1000.000001000.000001000.000001000.000001000.00000
     Eigenvalues --- 1000.000001000.000001000.000001000.000001000.00000
     Eigenvalues --- 1000.000001000.000001000.000001000.000001000.00000
     Eigenvalues --- 1000.000001000.000001000.000001000.000001000.00000
     Eigenvalues --- 1000.000001000.000001000.000001000.00000
 RFO step:  Lambda=-1.19485214D-02 EMin= 2.36824195D-03
 Linear search not attempted -- first point.
 Iteration  1 RMS(Cart)=  0.04890160 RMS(Int)=  0.00044236
 Iteration  2 RMS(Cart)=  0.00036306 RMS(Int)=  0.00016930
 Iteration  3 RMS(Cart)=  0.00000023 RMS(Int)=  0.00016930
 Iteration  1 RMS(Cart)=  0.00000001 RMS(Int)=  0.00000000
 Variable       Old X    -DE/DX   Delta X   Delta X   Delta X     New X
                                 (Linear)    (Quad)   (Total)
    R1        2.02201   0.01825   0.00000   0.04749   0.04749   2.06950
    R2        2.02201   0.01783   0.00000   0.04639   0.04639   2.06840
    R3        2.02201   0.01782   0.00000   0.04639   0.04639   2.06839
    R4        2.91018   0.00918   0.00000   0.03090   0.03090   2.94108
    R5        2.02201   0.01855   0.00000   0.04828   0.04828   2.07029
    R6        2.02201   0.01855   0.00000   0.04828   0.04828   2.07029
    R7        2.91018   0.00712   0.00000   0.02395   0.02395   2.93413
    R8        2.02201   0.01855   0.00000   0.04829   0.04829   2.07029
    R9        2.02201   0.01855   0.00000   0.04828   0.04828   2.07029
   R10        2.91018   0.00918   0.00000   0.03090   0.03090   2.94108
   R11        2.02201   0.01783   0.00000   0.04639   0.04639   2.06840
   R12        2.02201   0.01825   0.00000   0.04749   0.04749   2.06950
   R13        2.02201   0.01782   0.00000   0.04639   0.04639   2.06839
    A1        1.91063  -0.00351   0.00000  -0.01876  -0.01902   1.89161
    A2        1.91063  -0.00351   0.00000  -0.01875  -0.01902   1.89162
    A3        1.91063   0.00545   0.00000   0.03333   0.03306   1.94369
    A4        1.91063  -0.00251   0.00000  -0.01790  -0.01791   1.89272
    A5        1.91063   0.00204   0.00000   0.01103   0.01089   1.92152
    A6        1.91063   0.00204   0.00000   0.01105   0.01091   1.92154
    A7        1.91063  -0.00204   0.00000  -0.00087  -0.00092   1.90971
    A8        1.91063  -0.00204   0.00000  -0.00091  -0.00096   1.90967
    A9        1.91063   0.00982   0.00000   0.05045   0.05021   1.96085
   A10        1.91063   0.00034   0.00000  -0.02426  -0.02452   1.88611
   A11        1.91063  -0.00304   0.00000  -0.01218  -0.01261   1.89802
   A12        1.91063  -0.00304   0.00000  -0.01223  -0.01265   1.89798
   A13        1.91063  -0.00304   0.00000  -0.01219  -0.01262   1.89802
   A14        1.91063  -0.00304   0.00000  -0.01222  -0.01265   1.89799
   A15        1.91063   0.00982   0.00000   0.05045   0.05021   1.96085
   A16        1.91063   0.00034   0.00000  -0.02426  -0.02452   1.88611
   A17        1.91063  -0.00204   0.00000  -0.00090  -0.00095   1.90969
   A18        1.91063  -0.00204   0.00000  -0.00089  -0.00094   1.90970
   A19        1.91063   0.00204   0.00000   0.01104   0.01090   1.92153
   A20        1.91063   0.00545   0.00000   0.03333   0.03306   1.94369
   A21        1.91063   0.00204   0.00000   0.01105   0.01090   1.92153
   A22        1.91063  -0.00351   0.00000  -0.01876  -0.01902   1.89161
   A23        1.91063  -0.00251   0.00000  -0.01790  -0.01791   1.89272
   A24        1.91063  -0.00351   0.00000  -0.01876  -0.01902   1.89161
    D1        1.04526  -0.00104   0.00000  -0.01507  -0.01517   1.03009
    D2       -1.04914   0.00104   0.00000   0.01574   0.01584  -1.03329
    D3        3.13965   0.00001   0.00000   0.00038   0.00038   3.14003
    D4       -1.04914  -0.00133   0.00000  -0.01925  -0.01942  -1.06856
    D5        3.13965   0.00075   0.00000   0.01155   0.01159  -3.13194
    D6        1.04526  -0.00028   0.00000  -0.00381  -0.00387   1.04138
    D7        3.13965  -0.00074   0.00000  -0.01086  -0.01090   3.12876
    D8        1.04526   0.00133   0.00000   0.01995   0.02012   1.06538
    D9       -1.04914   0.00030   0.00000   0.00459   0.00465  -1.04448
   D10        1.04682  -0.00165   0.00000  -0.02234  -0.02222   1.02460
   D11       -1.04757   0.00165   0.00000   0.02233   0.02221  -1.02536
   D12        3.14122  -0.00000   0.00000   0.00000  -0.00000   3.14122
   D13        3.14122   0.00000   0.00000   0.00004   0.00004   3.14126
   D14        1.04682   0.00331   0.00000   0.04470   0.04447   1.09129
   D15       -1.04757   0.00165   0.00000   0.02237   0.02226  -1.02531
   D16       -1.04757  -0.00330   0.00000  -0.04463  -0.04440  -1.09197
   D17        3.14122   0.00000   0.00000   0.00004   0.00004   3.14126
   D18        1.04682  -0.00165   0.00000  -0.02229  -0.02218   1.02465
   D19        1.04711  -0.00029   0.00000  -0.00421  -0.00427   1.04284
   D20        3.14151  -0.00000   0.00000  -0.00001  -0.00001   3.14150
   D21       -1.04728   0.00029   0.00000   0.00419   0.00426  -1.04302
   D22        3.14151   0.00075   0.00000   0.01121   0.01125  -3.13042
   D23       -1.04728   0.00104   0.00000   0.01541   0.01552  -1.03176
   D24        1.04711   0.00133   0.00000   0.01961   0.01978   1.06690
   D25       -1.04728  -0.00133   0.00000  -0.01959  -0.01976  -1.06704
   D26        1.04711  -0.00104   0.00000  -0.01540  -0.01550   1.03161
   D27        3.14151  -0.00075   0.00000  -0.01120  -0.01124   3.13027
         Item               Value     Threshold  Converged?
 Maximum Force            0.018554     0.000450     NO 
 RMS     Force            0.007933     0.000300     NO 
 Maximum Displacement     0.126761     0.001800     NO 
 RMS     Displacement     0.048702     0.001200     NO 
 Predicted change in Energy=-6.247538D-03
 GradGradGradGradGradGradGradGradGradGradGradGradGradGradGradGradGradGrad

                          Input orientation:                          
 ---------------------------------------------------------------------
 Center     Atomic      Atomic             Coordinates (Angstroms)
 Number     Number       Type             X           Y           Z
 ---------------------------------------------------------------------
      1          6           0       -3.808485   -1.062161   -0.026748
      2          1           0       -3.451549   -2.097394   -0.040906
      3          1           0       -3.452485   -0.561900   -0.932860
      4          1           0       -4.902815   -1.074091   -0.044959
      5          6           0       -3.302881   -0.305296    1.235693
      6          1           0       -2.207436   -0.311376    1.249646
      7          1           0       -3.656982   -0.820500    2.135363
      8          6           0       -3.794351    1.166942    1.277708
      9          1           0       -4.889792    1.173026    1.263407
     10          1           0       -3.439961    1.682244    0.378209
     11          6           0       -3.289185    1.923652    2.540417
     12          1           0       -2.194860    1.934117    2.559872
     13          1           0       -3.644739    2.959372    2.553730
     14          1           0       -3.646891    1.424254    3.446332
 ---------------------------------------------------------------------
                    Distance matrix (angstroms):
                    1          2          3          4          5
     1  C    0.000000
     2  H    1.095131   0.000000
     3  H    1.094549   1.775761   0.000000
     4  H    1.094547   1.775765   1.775997   0.000000
     5  C    1.556353   2.205317   2.188801   2.188814   0.000000
     6  H    2.180875   2.530455   2.525122   3.085904   1.095551
     7  H    2.180843   2.531563   3.085885   2.523928   1.095550
     8  C    2.582770   3.537251   2.827080   2.828493   1.552673
     9  H    2.798175   3.803344   3.146333   2.600293   2.168984
    10  H    2.798492   3.802822   2.599085   3.149031   2.168959
    11  C    3.971786   4.781046   4.274142   4.274861   2.582770
    12  H    4.274584   4.959476   4.473355   4.813261   2.827743
    13  H    4.781047   5.686858   4.959096   4.960319   3.537252
    14  H    4.274418   4.959939   4.812476   4.473051   2.827828
                    6          7          8          9         10
     6  H    0.000000
     7  H    1.773383   0.000000
     8  C    2.168988   2.168955   0.000000
     9  H    3.065726   2.500855   1.095552   0.000000
    10  H    2.500608   3.065683   1.095549   1.773383   0.000000
    11  C    2.798504   2.798162   1.556353   2.180857   2.180861
    12  H    2.599826   3.147368   2.188806   3.085894   2.524554
    13  H    3.803193   3.802975   2.205317   2.531032   2.530985
    14  H    3.147995   2.599550   2.188808   2.524496   3.085896
                   11         12         13         14
    11  C    0.000000
    12  H    1.094548   0.000000
    13  H    1.095131   1.775763   0.000000
    14  H    1.094547   1.775997   1.775762   0.000000
 Stoichiometry    C4H10
 Framework group  C1[X(C4H10)]
 Deg. of freedom    36
 Full point group                 C1      NOp   1
 Largest Abelian subgroup         C1      NOp   1
 Largest concise Abelian subgroup C1      NOp   1
                         Standard orientation:                         
 ---------------------------------------------------------------------
 Center     Atomic      Atomic             Coordinates (Angstroms)
 Number     Number       Type             X           Y           Z
 ---------------------------------------------------------------------
      1          6           0       -1.982046    0.123553    0.000124
      2          1           0       -2.771521   -0.635420   -0.001470
      3          1           0       -2.106197    0.752583   -0.886975
      4          1           0       -2.107143    0.749849    0.889020
      5          6           0       -0.568804   -0.528356   -0.000143
      6          1           0       -0.460373   -1.162490   -0.886905
      7          1           0       -0.460160   -1.162650    0.886478
      8          6           0        0.568804    0.528356   -0.000144
      9          1           0        0.460164    1.162705    0.886440
     10          1           0        0.460369    1.162434   -0.886943
     11          6           0        1.982046   -0.123553    0.000126
     12          1           0        2.106747   -0.751412   -0.887725
     13          1           0        2.771521    0.635421    0.000028
     14          1           0        2.106592   -0.751021    0.888273
 ---------------------------------------------------------------------
 Rotational constants (GHZ):          23.0258900           3.5433102           3.3274743
 Standard basis: 3-21G (6D, 7F)
 There are    56 symmetry adapted cartesian basis functions of A   symmetry.
 There are    56 symmetry adapted basis functions of A   symmetry.
    56 basis functions,    90 primitive gaussians,    56 cartesian basis functions
    17 alpha electrons       17 beta electrons
       nuclear repulsion energy       129.3113341630 Hartrees.
 NAtoms=   14 NActive=   14 NUniq=   14 SFac= 1.00D+00 NAtFMM=   60 NAOKFM=F Big=F
 Integral buffers will be    131072 words long.
 Raffenetti 2 integral format.
 Two-electron integral symmetry is turned on.
 One-electron integrals computed using PRISM.
 NBasis=    56 RedAO= T EigKep=  1.29D-02  NBF=    56
 NBsUse=    56 1.00D-06 EigRej= -1.00D+00 NBFU=    56
 Initial guess from the checkpoint file:  "Butano.chk"
 B after Tr=    -0.000000   -0.000000    0.000000
         Rot=    1.000000    0.000036   -0.000003    0.000231 Ang=   0.03 deg.
 ExpMin= 1.83D-01 ExpMax= 1.72D+02 ExpMxC= 1.72D+02 IAcc=3 IRadAn=         5 AccDes= 0.00D+00
 Harris functional with IExCor=  402 and IRadAn=       5 diagonalized for initial guess.
 HarFok:  IExCor=  402 AccDes= 0.00D+00 IRadAn=         5 IDoV= 1 UseB2=F ITyADJ=14
 ICtDFT=  3500011 ScaDFX=  1.000000  1.000000  1.000000  1.000000
 FoFCou: FMM=F IPFlag=           0 FMFlag=      100000 FMFlg1=           0
         NFxFlg=           0 DoJE=T BraDBF=F KetDBF=T FulRan=T
         wScrn=  0.000000 ICntrl=       500 IOpCl=  0 I1Cent=   200000004 NGrid=           0
         NMat0=    1 NMatS0=      1 NMatT0=    0 NMatD0=    1 NMtDS0=    0 NMtDT0=    0
 Petite list used in FoFCou.
 Requested convergence on RMS density matrix=1.00D-08 within 128 cycles.
 Requested convergence on MAX density matrix=1.00D-06.
 Requested convergence on             energy=1.00D-06.
 No special actions if energy rises.
 Integral accuracy reduced to 1.0D-05 until final iterations.
 Initial convergence to 1.0D-05 achieved.  Increase integral accuracy.
 SCF Done:  E(RB3LYP) =  -157.603242363     A.U. after   10 cycles
            NFock= 10  Conv=0.24D-08     -V/T= 2.0097
 Calling FoFJK, ICntrl=      2127 FMM=F ISym2X=0 I1Cent= 0 IOpClX= 0 NMat=1 NMatS=1 NMatT=0.
 ***** Axes restored to original set *****
 -------------------------------------------------------------------
 Center     Atomic                   Forces (Hartrees/Bohr)
 Number     Number              X              Y              Z
 -------------------------------------------------------------------
      1        6           0.001852521    0.003792247    0.005211919
      2        1           0.000333817   -0.000005716    0.000552286
      3        1          -0.000050556    0.000227507   -0.001150497
      4        1          -0.001027794   -0.000107796   -0.000556331
      5        6          -0.003340852    0.001638308   -0.004520102
      6        1           0.001302950   -0.000838695    0.000927088
      7        1           0.000720925   -0.001054803    0.001288826
      8        6           0.003334115   -0.001640682    0.004524181
      9        1          -0.001303094    0.000843825   -0.000929163
     10        1          -0.000716882    0.001051043   -0.001289142
     11        6          -0.001849914   -0.003791353   -0.005213499
     12        1           0.001028258    0.000112165    0.000554920
     13        1          -0.000337424    0.000004442   -0.000550068
     14        1           0.000053928   -0.000230493    0.001149582
 -------------------------------------------------------------------
 Cartesian Forces:  Max     0.005213499 RMS     0.002058426

 GradGradGradGradGradGradGradGradGradGradGradGradGradGradGradGradGradGrad
 Berny optimization.
 Using GEDIIS/GDIIS optimizer.
 FormGI is forming the generalized inverse of G from B-inverse, IUseBI=4.
 Internal  Forces:  Max     0.005550936 RMS     0.001293594
 Search for a local minimum.
 Step number   2 out of a maximum of   74 on scan point     1 out of    37
 All quantities printed in internal units (Hartrees-Bohrs-Radians)
 Mixed Optimization -- RFO/linear search
 Update second derivatives using D2CorX and points    1    2
 DE= -5.76D-03 DEPred=-6.25D-03 R= 9.21D-01
 TightC=F SS=  1.41D+00  RLast= 2.14D-01 DXNew= 5.0454D-01 6.4056D-01
 Trust test= 9.21D-01 RLast= 2.14D-01 DXMaxT set to 5.05D-01
 ITU=  1  0
 Use linear search instead of GDIIS.
     Eigenvalues ---    0.00237   0.00237   0.01464   0.03516   0.04776
     Eigenvalues ---    0.04790   0.05454   0.05454   0.05596   0.05606
     Eigenvalues ---    0.08167   0.08185   0.10545   0.12094   0.15814
     Eigenvalues ---    0.16000   0.16000   0.16000   0.16000   0.16239
     Eigenvalues ---    0.21961   0.22673   0.28508   0.28519   0.29113
     Eigenvalues ---    0.36570   0.37230   0.37230   0.37230   0.37230
     Eigenvalues ---    0.37230   0.37230   0.37230   0.37230   0.37990
     Eigenvalues --- 1000.000001000.000001000.000001000.000001000.00000
     Eigenvalues --- 1000.000001000.000001000.000001000.000001000.00000
     Eigenvalues --- 1000.000001000.000001000.000001000.000001000.00000
     Eigenvalues --- 1000.000001000.000001000.000001000.000001000.00000
     Eigenvalues --- 1000.000001000.000001000.000001000.000001000.00000
     Eigenvalues --- 1000.000001000.000001000.000001000.00000
 RFO step:  Lambda=-4.14255532D-04 EMin= 2.36824195D-03
 Quartic linear search produced a step of -0.01280.
 Iteration  1 RMS(Cart)=  0.00939249 RMS(Int)=  0.00002089
 Iteration  2 RMS(Cart)=  0.00002061 RMS(Int)=  0.00000811
 Iteration  3 RMS(Cart)=  0.00000000 RMS(Int)=  0.00000811
 Iteration  1 RMS(Cart)=  0.00000001 RMS(Int)=  0.00000000
 Variable       Old X    -DE/DX   Delta X   Delta X   Delta X     New X
                                 (Linear)    (Quad)   (Total)
    R1        2.06950   0.00011  -0.00061   0.00245   0.00184   2.07134
    R2        2.06840   0.00104  -0.00059   0.00487   0.00428   2.07268
    R3        2.06839   0.00104  -0.00059   0.00487   0.00427   2.07267
    R4        2.94108  -0.00555  -0.00040  -0.01778  -0.01817   2.92291
    R5        2.07029   0.00132  -0.00062   0.00570   0.00508   2.07537
    R6        2.07029   0.00132  -0.00062   0.00570   0.00509   2.07537
    R7        2.93413  -0.00358  -0.00031  -0.01126  -0.01157   2.92255
    R8        2.07029   0.00132  -0.00062   0.00570   0.00508   2.07537
    R9        2.07029   0.00132  -0.00062   0.00570   0.00508   2.07537
   R10        2.94108  -0.00555  -0.00040  -0.01778  -0.01817   2.92291
   R11        2.06840   0.00104  -0.00059   0.00487   0.00428   2.07267
   R12        2.06950   0.00011  -0.00061   0.00245   0.00184   2.07134
   R13        2.06839   0.00104  -0.00059   0.00487   0.00428   2.07267
    A1        1.89161   0.00012   0.00024  -0.00074  -0.00049   1.89112
    A2        1.89162   0.00013   0.00024  -0.00073  -0.00048   1.89114
    A3        1.94369  -0.00119  -0.00042  -0.00648  -0.00689   1.93680
    A4        1.89272  -0.00066   0.00023  -0.00357  -0.00336   1.88936
    A5        1.92152   0.00079  -0.00014   0.00569   0.00554   1.92706
    A6        1.92154   0.00079  -0.00014   0.00568   0.00554   1.92708
    A7        1.90971   0.00058   0.00001   0.00240   0.00242   1.91213
    A8        1.90967   0.00058   0.00001   0.00239   0.00241   1.91208
    A9        1.96085  -0.00198  -0.00064  -0.00468  -0.00531   1.95554
   A10        1.88611  -0.00095   0.00031  -0.01192  -0.01161   1.87450
   A11        1.89802   0.00090   0.00016   0.00572   0.00589   1.90391
   A12        1.89798   0.00090   0.00016   0.00573   0.00590   1.90388
   A13        1.89802   0.00090   0.00016   0.00571   0.00588   1.90390
   A14        1.89799   0.00090   0.00016   0.00574   0.00591   1.90389
   A15        1.96085  -0.00198  -0.00064  -0.00468  -0.00531   1.95554
   A16        1.88611  -0.00095   0.00031  -0.01192  -0.01161   1.87450
   A17        1.90969   0.00058   0.00001   0.00238   0.00240   1.91209
   A18        1.90970   0.00058   0.00001   0.00240   0.00242   1.91212
   A19        1.92153   0.00079  -0.00014   0.00569   0.00554   1.92707
   A20        1.94369  -0.00119  -0.00042  -0.00648  -0.00689   1.93680
   A21        1.92153   0.00079  -0.00014   0.00568   0.00554   1.92707
   A22        1.89161   0.00013   0.00024  -0.00074  -0.00048   1.89113
   A23        1.89272  -0.00066   0.00023  -0.00357  -0.00336   1.88936
   A24        1.89161   0.00013   0.00024  -0.00074  -0.00048   1.89113
    D1        1.03009  -0.00023   0.00019  -0.00453  -0.00434   1.02575
    D2       -1.03329   0.00024  -0.00020   0.00711   0.00691  -1.02638
    D3        3.14003   0.00000  -0.00000   0.00129   0.00128   3.14132
    D4       -1.06856  -0.00015   0.00025  -0.00317  -0.00291  -1.07147
    D5       -3.13194   0.00033  -0.00015   0.00848   0.00834  -3.12360
    D6        1.04138   0.00009   0.00005   0.00265   0.00271   1.04410
    D7        3.12876  -0.00032   0.00014  -0.00589  -0.00576   3.12300
    D8        1.06538   0.00015  -0.00026   0.00575   0.00548   1.07086
    D9       -1.04448  -0.00009  -0.00006  -0.00007  -0.00014  -1.04462
   D10        1.02460  -0.00006   0.00028  -0.00390  -0.00362   1.02099
   D11       -1.02536   0.00007  -0.00028   0.00394   0.00366  -1.02170
   D12        3.14122   0.00000   0.00000   0.00000   0.00000   3.14122
   D13        3.14126   0.00000  -0.00000   0.00003   0.00002   3.14128
   D14        1.09129   0.00013  -0.00057   0.00787   0.00730   1.09860
   D15       -1.02531   0.00007  -0.00028   0.00393   0.00364  -1.02167
   D16       -1.09197  -0.00013   0.00057  -0.00782  -0.00725  -1.09922
   D17        3.14126   0.00000  -0.00000   0.00003   0.00002   3.14128
   D18        1.02465  -0.00006   0.00028  -0.00392  -0.00363   1.02102
   D19        1.04284   0.00009   0.00005   0.00141   0.00147   1.04432
   D20        3.14150   0.00000   0.00000   0.00005   0.00005   3.14155
   D21       -1.04302  -0.00009  -0.00005  -0.00132  -0.00138  -1.04441
   D22       -3.13042   0.00033  -0.00014   0.00721   0.00707  -3.12335
   D23       -1.03176   0.00024  -0.00020   0.00585   0.00565  -1.02612
   D24        1.06690   0.00015  -0.00025   0.00448   0.00422   1.07111
   D25       -1.06704  -0.00015   0.00025  -0.00443  -0.00417  -1.07121
   D26        1.03161  -0.00024   0.00020  -0.00580  -0.00560   1.02602
   D27        3.13027  -0.00033   0.00014  -0.00716  -0.00703   3.12325
         Item               Value     Threshold  Converged?
 Maximum Force            0.005551     0.000450     NO 
 RMS     Force            0.001304     0.000300     NO 
 Maximum Displacement     0.023138     0.001800     NO 
 RMS     Displacement     0.009382     0.001200     NO 
 Predicted change in Energy=-2.091452D-04
 GradGradGradGradGradGradGradGradGradGradGradGradGradGradGradGradGradGrad

                          Input orientation:                          
 ---------------------------------------------------------------------
 Center     Atomic      Atomic             Coordinates (Angstroms)
 Number     Number       Type             X           Y           Z
 ---------------------------------------------------------------------
      1          6           0       -3.807641   -1.050495   -0.018741
      2          1           0       -3.449265   -2.086313   -0.028662
      3          1           0       -3.451707   -0.553164   -0.929219
      4          1           0       -4.904137   -1.064171   -0.041040
      5          6           0       -3.302876   -0.302108    1.237254
      6          1           0       -2.204843   -0.313316    1.255381
      7          1           0       -3.651580   -0.821812    2.139721
      8          6           0       -3.794355    1.163753    1.276147
      9          1           0       -4.892384    1.174957    1.257697
     10          1           0       -3.445388    1.683555    0.373841
     11          6           0       -3.290027    1.911987    2.532409
     12          1           0       -2.193536    1.925375    2.555253
     13          1           0       -3.648127    2.947902    2.542161
     14          1           0       -3.646543    1.414737    3.442701
 ---------------------------------------------------------------------
                    Distance matrix (angstroms):
                    1          2          3          4          5
     1  C    0.000000
     2  H    1.096107   0.000000
     3  H    1.096813   1.778077   0.000000
     4  H    1.096808   1.778083   1.777511   0.000000
     5  C    1.546737   2.192569   2.186043   2.186049   0.000000
     6  H    2.176185   2.518108   2.526791   3.087179   1.098239
     7  H    2.176146   2.518289   3.087153   2.526530   1.098241
     8  C    2.565114   3.519168   2.815822   2.816069   1.546549
     9  H    2.785427   3.791200   3.137604   2.588543   2.169949
    10  H    2.785745   3.791296   2.588612   3.138482   2.169942
    11  C    3.943678   4.750878   4.252762   4.252706   2.565114
    12  H    4.252833   4.934279   4.457319   4.798487   2.815926
    13  H    4.750878   5.656147   4.934220   4.934290   3.519168
    14  H    4.252635   4.934230   4.798362   4.456790   2.815965
                    6          7          8          9         10
     6  H    0.000000
     7  H    1.770218   0.000000
     8  C    2.169957   2.169934   0.000000
     9  H    3.072107   2.510906   1.098241   0.000000
    10  H    2.510688   3.072086   1.098239   1.770218   0.000000
    11  C    2.785749   2.785423   1.546737   2.176155   2.176175
    12  H    2.588732   3.137769   2.186047   3.087160   2.526692
    13  H    3.791360   3.791136   2.192569   2.518205   2.518192
    14  H    3.138317   2.588423   2.186046   2.526629   3.087172
                   11         12         13         14
    11  C    0.000000
    12  H    1.096811   0.000000
    13  H    1.096107   1.778080   0.000000
    14  H    1.096810   1.777511   1.778080   0.000000
 Stoichiometry    C4H10
 Framework group  C1[X(C4H10)]
 Deg. of freedom    36
 Full point group                 C1      NOp   1
 Largest Abelian subgroup         C1      NOp   1
 Largest concise Abelian subgroup C1      NOp   1
                         Standard orientation:                         
 ---------------------------------------------------------------------
 Center     Atomic      Atomic             Coordinates (Angstroms)
 Number     Number       Type             X           Y           Z
 ---------------------------------------------------------------------
      1          6           0       -1.967953    0.123728    0.000124
      2          1           0       -2.754867   -0.639303   -0.000161
      3          1           0       -2.097357    0.753634   -0.888398
      4          1           0       -2.097339    0.752971    0.889113
      5          6           0       -0.565134   -0.527804   -0.000142
      6          1           0       -0.457727   -1.168937   -0.885321
      7          1           0       -0.457528   -1.169099    0.884897
      8          6           0        0.565134    0.527804   -0.000144
      9          1           0        0.457528    1.169132    0.884872
     10          1           0        0.457727    1.168904   -0.885347
     11          6           0        1.967953   -0.123728    0.000124
     12          1           0        2.097445   -0.753461   -0.888506
     13          1           0        2.754867    0.639303    0.000072
     14          1           0        2.097252   -0.753144    0.889005
 ---------------------------------------------------------------------
 Rotational constants (GHZ):          22.9584633           3.5884728           3.3655623
 Standard basis: 3-21G (6D, 7F)
 There are    56 symmetry adapted cartesian basis functions of A   symmetry.
 There are    56 symmetry adapted basis functions of A   symmetry.
    56 basis functions,    90 primitive gaussians,    56 cartesian basis functions
    17 alpha electrons       17 beta electrons
       nuclear repulsion energy       129.7082521242 Hartrees.
 NAtoms=   14 NActive=   14 NUniq=   14 SFac= 1.00D+00 NAtFMM=   60 NAOKFM=F Big=F
 Integral buffers will be    131072 words long.
 Raffenetti 2 integral format.
 Two-electron integral symmetry is turned on.
 One-electron integrals computed using PRISM.
 NBasis=    56 RedAO= T EigKep=  1.26D-02  NBF=    56
 NBsUse=    56 1.00D-06 EigRej= -1.00D+00 NBFU=    56
 Initial guess from the checkpoint file:  "Butano.chk"
 B after Tr=     0.000000   -0.000000   -0.000000
         Rot=    1.000000    0.000095   -0.000009   -0.000081 Ang=   0.01 deg.
 ExpMin= 1.83D-01 ExpMax= 1.72D+02 ExpMxC= 1.72D+02 IAcc=3 IRadAn=         5 AccDes= 0.00D+00
 Harris functional with IExCor=  402 and IRadAn=       5 diagonalized for initial guess.
 HarFok:  IExCor=  402 AccDes= 0.00D+00 IRadAn=         5 IDoV= 1 UseB2=F ITyADJ=14
 ICtDFT=  3500011 ScaDFX=  1.000000  1.000000  1.000000  1.000000
 FoFCou: FMM=F IPFlag=           0 FMFlag=      100000 FMFlg1=           0
         NFxFlg=           0 DoJE=T BraDBF=F KetDBF=T FulRan=T
         wScrn=  0.000000 ICntrl=       500 IOpCl=  0 I1Cent=   200000004 NGrid=           0
         NMat0=    1 NMatS0=      1 NMatT0=    0 NMatD0=    1 NMtDS0=    0 NMtDT0=    0
 Petite list used in FoFCou.
 Requested convergence on RMS density matrix=1.00D-08 within 128 cycles.
 Requested convergence on MAX density matrix=1.00D-06.
 Requested convergence on             energy=1.00D-06.
 No special actions if energy rises.
 Integral accuracy reduced to 1.0D-05 until final iterations.
 Initial convergence to 1.0D-05 achieved.  Increase integral accuracy.
 SCF Done:  E(RB3LYP) =  -157.603466882     A.U. after    8 cycles
            NFock=  8  Conv=0.88D-08     -V/T= 2.0096
 Calling FoFJK, ICntrl=      2127 FMM=F ISym2X=0 I1Cent= 0 IOpClX= 0 NMat=1 NMatS=1 NMatT=0.
 ***** Axes restored to original set *****
 -------------------------------------------------------------------
 Center     Atomic                   Forces (Hartrees/Bohr)
 Number     Number              X              Y              Z
 -------------------------------------------------------------------
      1        6           0.000725865    0.000226589    0.001302628
      2        1          -0.000293282    0.000205385   -0.000358420
      3        1          -0.000248436   -0.000299774    0.000170994
      4        1           0.000362525   -0.000082390   -0.000202759
      5        6          -0.001382879    0.000472097   -0.001975342
      6        1          -0.000166909   -0.000033002    0.000300435
      7        1           0.000319598    0.000135676    0.000006001
      8        6           0.001374770   -0.000474959    0.001980253
      9        1           0.000166879    0.000033159   -0.000301533
     10        1          -0.000318649   -0.000135519   -0.000005473
     11        6          -0.000716655   -0.000223346   -0.001308222
     12        1          -0.000363223    0.000083792    0.000203187
     13        1           0.000291875   -0.000205879    0.000359290
     14        1           0.000248519    0.000298170   -0.000171039
 -------------------------------------------------------------------
 Cartesian Forces:  Max     0.001980253 RMS     0.000660761

 GradGradGradGradGradGradGradGradGradGradGradGradGradGradGradGradGradGrad
 Berny optimization.
 Using GEDIIS/GDIIS optimizer.
 FormGI is forming the generalized inverse of G from B-inverse, IUseBI=4.
 Internal  Forces:  Max     0.000943776 RMS     0.000312938
 Search for a local minimum.
 Step number   3 out of a maximum of   74 on scan point     1 out of    37
 All quantities printed in internal units (Hartrees-Bohrs-Radians)
 Mixed Optimization -- En-DIIS/RFO-DIIS
 Update second derivatives using D2CorX and points    1    2    3
 DE= -2.25D-04 DEPred=-2.09D-04 R= 1.07D+00
 TightC=F SS=  1.41D+00  RLast= 4.78D-02 DXNew= 8.4853D-01 1.4339D-01
 Trust test= 1.07D+00 RLast= 4.78D-02 DXMaxT set to 5.05D-01
 ITU=  1  1  0
 Use linear search instead of GDIIS.
     Eigenvalues ---    0.00237   0.00237   0.01463   0.03517   0.04301
     Eigenvalues ---    0.04777   0.05476   0.05476   0.05545   0.05581
     Eigenvalues ---    0.08143   0.08221   0.10528   0.12077   0.14931
     Eigenvalues ---    0.16000   0.16000   0.16000   0.16000   0.16611
     Eigenvalues ---    0.21926   0.22573   0.28468   0.28519   0.29914
     Eigenvalues ---    0.37071   0.37230   0.37230   0.37230   0.37230
     Eigenvalues ---    0.37230   0.37230   0.37230   0.37391   0.38471
     Eigenvalues --- 1000.000001000.000001000.000001000.000001000.00000
     Eigenvalues --- 1000.000001000.000001000.000001000.000001000.00000
     Eigenvalues --- 1000.000001000.000001000.000001000.000001000.00000
     Eigenvalues --- 1000.000001000.000001000.000001000.000001000.00000
     Eigenvalues --- 1000.000001000.000001000.000001000.000001000.00000
     Eigenvalues --- 1000.000001000.000001000.000001000.00000
 RFO step:  Lambda=-3.72157511D-05 EMin= 2.36823879D-03
 Quartic linear search produced a step of  0.07724.
 Iteration  1 RMS(Cart)=  0.00151043 RMS(Int)=  0.00000488
 Iteration  2 RMS(Cart)=  0.00000977 RMS(Int)=  0.00000252
 Iteration  3 RMS(Cart)=  0.00000000 RMS(Int)=  0.00000252
 Iteration  1 RMS(Cart)=  0.00000001 RMS(Int)=  0.00000000
 Variable       Old X    -DE/DX   Delta X   Delta X   Delta X     New X
                                 (Linear)    (Quad)   (Total)
    R1        2.07134  -0.00029   0.00014  -0.00064  -0.00050   2.07085
    R2        2.07268  -0.00036   0.00033  -0.00082  -0.00049   2.07219
    R3        2.07267  -0.00036   0.00033  -0.00081  -0.00048   2.07218
    R4        2.92291  -0.00094  -0.00140  -0.00371  -0.00511   2.91780
    R5        2.07537  -0.00016   0.00039  -0.00023   0.00016   2.07554
    R6        2.07537  -0.00016   0.00039  -0.00023   0.00017   2.07554
    R7        2.92255  -0.00079  -0.00089  -0.00306  -0.00395   2.91860
    R8        2.07537  -0.00016   0.00039  -0.00023   0.00016   2.07554
    R9        2.07537  -0.00016   0.00039  -0.00023   0.00017   2.07554
   R10        2.92291  -0.00094  -0.00140  -0.00371  -0.00511   2.91780
   R11        2.07267  -0.00036   0.00033  -0.00082  -0.00049   2.07219
   R12        2.07134  -0.00029   0.00014  -0.00064  -0.00050   2.07085
   R13        2.07267  -0.00036   0.00033  -0.00082  -0.00049   2.07218
    A1        1.89112  -0.00033  -0.00004  -0.00194  -0.00198   1.88915
    A2        1.89114  -0.00033  -0.00004  -0.00195  -0.00199   1.88915
    A3        1.93680   0.00052  -0.00053   0.00391   0.00338   1.94018
    A4        1.88936  -0.00024  -0.00026  -0.00244  -0.00270   1.88666
    A5        1.92706   0.00017   0.00043   0.00109   0.00152   1.92858
    A6        1.92708   0.00017   0.00043   0.00106   0.00149   1.92857
    A7        1.91213  -0.00011   0.00019   0.00067   0.00085   1.91298
    A8        1.91208  -0.00011   0.00019   0.00069   0.00087   1.91295
    A9        1.95554   0.00074  -0.00041   0.00486   0.00444   1.95998
   A10        1.87450  -0.00004  -0.00090  -0.00417  -0.00507   1.86944
   A11        1.90391  -0.00026   0.00045  -0.00123  -0.00078   1.90313
   A12        1.90388  -0.00026   0.00046  -0.00122  -0.00077   1.90311
   A13        1.90390  -0.00026   0.00045  -0.00124  -0.00079   1.90311
   A14        1.90389  -0.00026   0.00046  -0.00121  -0.00076   1.90313
   A15        1.95554   0.00074  -0.00041   0.00486   0.00444   1.95998
   A16        1.87450  -0.00004  -0.00090  -0.00417  -0.00507   1.86944
   A17        1.91209  -0.00011   0.00019   0.00068   0.00086   1.91295
   A18        1.91212  -0.00011   0.00019   0.00068   0.00087   1.91299
   A19        1.92707   0.00017   0.00043   0.00108   0.00151   1.92858
   A20        1.93680   0.00052  -0.00053   0.00391   0.00338   1.94018
   A21        1.92707   0.00017   0.00043   0.00107   0.00150   1.92857
   A22        1.89113  -0.00033  -0.00004  -0.00194  -0.00198   1.88915
   A23        1.88936  -0.00024  -0.00026  -0.00244  -0.00270   1.88666
   A24        1.89113  -0.00033  -0.00004  -0.00194  -0.00198   1.88915
    D1        1.02575  -0.00009  -0.00033  -0.00195  -0.00229   1.02346
    D2       -1.02638   0.00009   0.00053   0.00230   0.00284  -1.02354
    D3        3.14132   0.00000   0.00010   0.00016   0.00026   3.14157
    D4       -1.07147  -0.00013  -0.00022  -0.00279  -0.00302  -1.07449
    D5       -3.12360   0.00005   0.00064   0.00146   0.00211  -3.12149
    D6        1.04410  -0.00004   0.00021  -0.00068  -0.00048   1.04362
    D7        3.12300  -0.00004  -0.00045  -0.00114  -0.00158   3.12141
    D8        1.07086   0.00013   0.00042   0.00312   0.00355   1.07441
    D9       -1.04462   0.00004  -0.00001   0.00097   0.00096  -1.04366
   D10        1.02099  -0.00017  -0.00028  -0.00318  -0.00346   1.01753
   D11       -1.02170   0.00017   0.00028   0.00320   0.00349  -1.01821
   D12        3.14122   0.00000   0.00000   0.00000   0.00000   3.14122
   D13        3.14128  -0.00000   0.00000  -0.00001  -0.00001   3.14128
   D14        1.09860   0.00034   0.00056   0.00637   0.00694   1.10553
   D15       -1.02167   0.00017   0.00028   0.00317   0.00345  -1.01822
   D16       -1.09922  -0.00034  -0.00056  -0.00639  -0.00695  -1.10617
   D17        3.14128  -0.00000   0.00000  -0.00001  -0.00001   3.14128
   D18        1.02102  -0.00017  -0.00028  -0.00321  -0.00349   1.01752
   D19        1.04432  -0.00004   0.00011  -0.00080  -0.00069   1.04363
   D20        3.14155   0.00000   0.00000   0.00003   0.00003   3.14158
   D21       -1.04441   0.00004  -0.00011   0.00086   0.00075  -1.04366
   D22       -3.12335   0.00004   0.00055   0.00131   0.00185  -3.12149
   D23       -1.02612   0.00009   0.00044   0.00214   0.00258  -1.02354
   D24        1.07111   0.00013   0.00033   0.00296   0.00329   1.07441
   D25       -1.07121  -0.00013  -0.00032  -0.00295  -0.00327  -1.07449
   D26        1.02602  -0.00009  -0.00043  -0.00212  -0.00255   1.02346
   D27        3.12325  -0.00005  -0.00054  -0.00129  -0.00184   3.12141
         Item               Value     Threshold  Converged?
 Maximum Force            0.000944     0.000450     NO 
 RMS     Force            0.000315     0.000300     NO 
 Maximum Displacement     0.003721     0.001800     NO 
 RMS     Displacement     0.001508     0.001200     NO 
 Predicted change in Energy=-1.990056D-05
 GradGradGradGradGradGradGradGradGradGradGradGradGradGradGradGradGradGrad

                          Input orientation:                          
 ---------------------------------------------------------------------
 Center     Atomic      Atomic             Coordinates (Angstroms)
 Number     Number       Type             X           Y           Z
 ---------------------------------------------------------------------
      1          6           0       -3.807101   -1.050388   -0.017820
      2          1           0       -3.449990   -2.086347   -0.029426
      3          1           0       -3.452443   -0.554857   -0.929466
      4          1           0       -4.903280   -1.064911   -0.042446
      5          6           0       -3.304293   -0.301423    1.235285
      6          1           0       -2.206230   -0.313541    1.256034
      7          1           0       -3.650332   -0.821184    2.138851
      8          6           0       -3.792936    1.163069    1.278115
      9          1           0       -4.890995    1.175178    1.257036
     10          1           0       -3.446631    1.682934    0.374713
     11          6           0       -3.290564    1.911881    2.531486
     12          1           0       -2.194392    1.926367    2.556531
     13          1           0       -3.647640    2.947852    2.543071
     14          1           0       -3.645584    1.416257    3.442938
 ---------------------------------------------------------------------
                    Distance matrix (angstroms):
                    1          2          3          4          5
     1  C    0.000000
     2  H    1.095845   0.000000
     3  H    1.096554   1.776384   0.000000
     4  H    1.096551   1.776387   1.775356   0.000000
     5  C    1.544032   2.192413   2.184564   2.184552   0.000000
     6  H    2.174496   2.518370   2.527388   3.086209   1.098326
     7  H    2.174475   2.518372   3.086205   2.527318   1.098329
     8  C    2.564964   3.519373   2.817911   2.817914   1.544457
     9  H    2.784462   3.790650   3.137395   2.589750   2.167591
    10  H    2.784792   3.790887   2.590102   3.137913   2.167607
    11  C    3.942182   4.750738   4.253138   4.252912   2.564964
    12  H    4.253138   4.936150   4.459970   4.800052   2.817911
    13  H    4.750738   5.656852   4.936151   4.935970   3.519373
    14  H    4.252913   4.935971   4.800053   4.459360   2.817914
                    6          7          8          9         10
     6  H    0.000000
     7  H    1.767059   0.000000
     8  C    2.167603   2.167594   0.000000
     9  H    3.069894   2.510439   1.098328   0.000000
    10  H    2.510226   3.069900   1.098327   1.767059   0.000000
    11  C    2.784790   2.784464   1.544032   2.174473   2.174498
    12  H    2.590100   3.137396   2.184563   3.086202   2.527388
    13  H    3.790886   3.790651   2.192413   2.518371   2.518372
    14  H    3.137912   2.589751   2.184554   2.527317   3.086212
                   11         12         13         14
    11  C    0.000000
    12  H    1.096553   0.000000
    13  H    1.095845   1.776385   0.000000
    14  H    1.096552   1.775356   1.776386   0.000000
 Stoichiometry    C4H10
 Framework group  C1[X(C4H10)]
 Deg. of freedom    36
 Full point group                 C1      NOp   1
 Largest Abelian subgroup         C1      NOp   1
 Largest concise Abelian subgroup C1      NOp   1
                         Standard orientation:                         
 ---------------------------------------------------------------------
 Center     Atomic      Atomic             Coordinates (Angstroms)
 Number     Number       Type             X           Y           Z
 ---------------------------------------------------------------------
      1          6           0       -1.967253    0.122953    0.000123
      2          1           0       -2.755442   -0.638383    0.000099
      3          1           0       -2.098901    0.753295   -0.887440
      4          1           0       -2.098675    0.753015    0.887915
      5          6           0       -0.565942   -0.525401   -0.000144
      6          1           0       -0.457669   -1.168691   -0.883758
      7          1           0       -0.457462   -1.168894    0.883301
      8          6           0        0.565942    0.525401   -0.000143
      9          1           0        0.457461    1.168887    0.883306
     10          1           0        0.457670    1.168698   -0.883753
     11          6           0        1.967253   -0.122953    0.000123
     12          1           0        2.098901   -0.753290   -0.887444
     13          1           0        2.755442    0.638383    0.000105
     14          1           0        2.098675   -0.753021    0.887912
 ---------------------------------------------------------------------
 Rotational constants (GHZ):          23.0524816           3.5893040           3.3674558
 Standard basis: 3-21G (6D, 7F)
 There are    56 symmetry adapted cartesian basis functions of A   symmetry.
 There are    56 symmetry adapted basis functions of A   symmetry.
    56 basis functions,    90 primitive gaussians,    56 cartesian basis functions
    17 alpha electrons       17 beta electrons
       nuclear repulsion energy       129.7896704175 Hartrees.
 NAtoms=   14 NActive=   14 NUniq=   14 SFac= 1.00D+00 NAtFMM=   60 NAOKFM=F Big=F
 Integral buffers will be    131072 words long.
 Raffenetti 2 integral format.
 Two-electron integral symmetry is turned on.
 One-electron integrals computed using PRISM.
 NBasis=    56 RedAO= T EigKep=  1.25D-02  NBF=    56
 NBsUse=    56 1.00D-06 EigRej= -1.00D+00 NBFU=    56
 Initial guess from the checkpoint file:  "Butano.chk"
 B after Tr=    -0.000000    0.000000    0.000000
         Rot=    1.000000    0.000012   -0.000002    0.000023 Ang=   0.00 deg.
 Requested convergence on RMS density matrix=1.00D-08 within 128 cycles.
 Requested convergence on MAX density matrix=1.00D-06.
 Requested convergence on             energy=1.00D-06.
 No special actions if energy rises.
 SCF Done:  E(RB3LYP) =  -157.603488240     A.U. after    7 cycles
            NFock=  7  Conv=0.15D-08     -V/T= 2.0095
 Calling FoFJK, ICntrl=      2127 FMM=F ISym2X=0 I1Cent= 0 IOpClX= 0 NMat=1 NMatS=1 NMatT=0.
 ***** Axes restored to original set *****
 -------------------------------------------------------------------
 Center     Atomic                   Forces (Hartrees/Bohr)
 Number     Number              X              Y              Z
 -------------------------------------------------------------------
      1        6           0.000058446    0.000019343    0.000098427
      2        1          -0.000056715    0.000094011   -0.000038238
      3        1          -0.000040130   -0.000068756    0.000042591
      4        1           0.000079225   -0.000026731   -0.000031411
      5        6          -0.000034225   -0.000150409   -0.000136730
      6        1          -0.000041940    0.000011375    0.000013012
      7        1           0.000019325    0.000033641   -0.000025306
      8        6           0.000029085    0.000148601    0.000139877
      9        1           0.000042139   -0.000011383   -0.000012887
     10        1          -0.000019359   -0.000033573    0.000025088
     11        6          -0.000052351   -0.000017199   -0.000102152
     12        1          -0.000079929    0.000026555    0.000031294
     13        1           0.000056528   -0.000094076    0.000038348
     14        1           0.000039901    0.000068598   -0.000041913
 -------------------------------------------------------------------
 Cartesian Forces:  Max     0.000150409 RMS     0.000065398

 GradGradGradGradGradGradGradGradGradGradGradGradGradGradGradGradGradGrad
 Berny optimization.
 Using GEDIIS/GDIIS optimizer.
 FormGI is forming the generalized inverse of G from B-inverse, IUseBI=4.
 Internal  Forces:  Max     0.000106747 RMS     0.000042180
 Search for a local minimum.
 Step number   4 out of a maximum of   74 on scan point     1 out of    37
 All quantities printed in internal units (Hartrees-Bohrs-Radians)
 Mixed Optimization -- En-DIIS/RFO-DIIS
 Swapping is turned off.
 Update second derivatives using D2CorX and points    1    2    3    4
 DE= -2.14D-05 DEPred=-1.99D-05 R= 1.07D+00
 TightC=F SS=  1.41D+00  RLast= 2.14D-02 DXNew= 8.4853D-01 6.4211D-02
 Trust test= 1.07D+00 RLast= 2.14D-02 DXMaxT set to 5.05D-01
 ITU=  1  1  1  0
     Eigenvalues ---    0.00237   0.00237   0.01450   0.03482   0.04278
     Eigenvalues ---    0.04763   0.05446   0.05446   0.05530   0.05580
     Eigenvalues ---    0.08196   0.08235   0.10570   0.12116   0.14334
     Eigenvalues ---    0.16000   0.16000   0.16000   0.16000   0.16595
     Eigenvalues ---    0.21920   0.22408   0.28519   0.28706   0.30416
     Eigenvalues ---    0.36964   0.37230   0.37230   0.37230   0.37230
     Eigenvalues ---    0.37230   0.37230   0.37230   0.37297   0.37406
     Eigenvalues --- 1000.000001000.000001000.000001000.000001000.00000
     Eigenvalues --- 1000.000001000.000001000.000001000.000001000.00000
     Eigenvalues --- 1000.000001000.000001000.000001000.000001000.00000
     Eigenvalues --- 1000.000001000.000001000.000001000.000001000.00000
     Eigenvalues --- 1000.000001000.000001000.000001000.000001000.00000
     Eigenvalues --- 1000.000001000.000001000.000001000.00000
 En-DIIS/RFO-DIIS/Sim-DIIS IScMMF=       -3 using points:     4    3
 RFO step:  Lambda=-4.98975189D-07.
 DidBck=F Rises=F RFO-DIIS coefs:    1.06973   -0.06973
 Iteration  1 RMS(Cart)=  0.00026082 RMS(Int)=  0.00000021
 Iteration  2 RMS(Cart)=  0.00000008 RMS(Int)=  0.00000020
 Iteration  1 RMS(Cart)=  0.00000000 RMS(Int)=  0.00000000
 Variable       Old X    -DE/DX   Delta X   Delta X   Delta X     New X
                                 (Linear)    (Quad)   (Total)
    R1        2.07085  -0.00011  -0.00003  -0.00026  -0.00029   2.07056
    R2        2.07219  -0.00008  -0.00003  -0.00016  -0.00019   2.07199
    R3        2.07218  -0.00008  -0.00003  -0.00016  -0.00019   2.07199
    R4        2.91780  -0.00008  -0.00036  -0.00009  -0.00045   2.91735
    R5        2.07554  -0.00004   0.00001  -0.00009  -0.00008   2.07546
    R6        2.07554  -0.00004   0.00001  -0.00009  -0.00008   2.07546
    R7        2.91860   0.00008  -0.00028   0.00048   0.00021   2.91881
    R8        2.07554  -0.00004   0.00001  -0.00009  -0.00008   2.07546
    R9        2.07554  -0.00004   0.00001  -0.00009  -0.00008   2.07546
   R10        2.91780  -0.00008  -0.00036  -0.00009  -0.00045   2.91735
   R11        2.07219  -0.00008  -0.00003  -0.00016  -0.00019   2.07199
   R12        2.07085  -0.00011  -0.00003  -0.00026  -0.00029   2.07056
   R13        2.07218  -0.00008  -0.00003  -0.00016  -0.00019   2.07199
    A1        1.88915  -0.00005  -0.00014  -0.00021  -0.00035   1.88880
    A2        1.88915  -0.00005  -0.00014  -0.00021  -0.00035   1.88880
    A3        1.94018   0.00004   0.00024   0.00000   0.00024   1.94041
    A4        1.88666  -0.00004  -0.00019  -0.00007  -0.00026   1.88639
    A5        1.92858   0.00004   0.00011   0.00024   0.00034   1.92892
    A6        1.92857   0.00004   0.00010   0.00024   0.00034   1.92891
    A7        1.91298  -0.00001   0.00006   0.00002   0.00008   1.91307
    A8        1.91295  -0.00001   0.00006   0.00002   0.00008   1.91303
    A9        1.95998   0.00007   0.00031   0.00007   0.00038   1.96036
   A10        1.86944   0.00001  -0.00035   0.00010  -0.00026   1.86918
   A11        1.90313  -0.00003  -0.00005  -0.00010  -0.00016   1.90297
   A12        1.90311  -0.00003  -0.00005  -0.00011  -0.00016   1.90295
   A13        1.90311  -0.00003  -0.00006  -0.00010  -0.00016   1.90295
   A14        1.90313  -0.00003  -0.00005  -0.00011  -0.00016   1.90297
   A15        1.95998   0.00007   0.00031   0.00007   0.00038   1.96036
   A16        1.86944   0.00001  -0.00035   0.00010  -0.00026   1.86918
   A17        1.91295  -0.00001   0.00006   0.00002   0.00008   1.91303
   A18        1.91299  -0.00001   0.00006   0.00002   0.00008   1.91307
   A19        1.92858   0.00004   0.00011   0.00024   0.00034   1.92892
   A20        1.94018   0.00004   0.00024   0.00000   0.00024   1.94041
   A21        1.92857   0.00004   0.00010   0.00024   0.00034   1.92891
   A22        1.88915  -0.00005  -0.00014  -0.00021  -0.00035   1.88880
   A23        1.88666  -0.00004  -0.00019  -0.00007  -0.00026   1.88639
   A24        1.88915  -0.00005  -0.00014  -0.00021  -0.00035   1.88880
    D1        1.02346  -0.00000  -0.00016   0.00006  -0.00010   1.02336
    D2       -1.02354   0.00000   0.00020  -0.00009   0.00011  -1.02343
    D3        3.14157  -0.00000   0.00002  -0.00001   0.00001   3.14158
    D4       -1.07449   0.00000  -0.00021   0.00016  -0.00005  -1.07453
    D5       -3.12149   0.00000   0.00015   0.00002   0.00017  -3.12133
    D6        1.04362   0.00000  -0.00003   0.00010   0.00007   1.04369
    D7        3.12141  -0.00000  -0.00011  -0.00005  -0.00016   3.12125
    D8        1.07441  -0.00000   0.00025  -0.00019   0.00005   1.07446
    D9       -1.04366  -0.00000   0.00007  -0.00012  -0.00005  -1.04371
   D10        1.01753  -0.00001  -0.00024  -0.00000  -0.00024   1.01728
   D11       -1.01821   0.00001   0.00024  -0.00000   0.00024  -1.01797
   D12        3.14122   0.00000   0.00000   0.00000   0.00000   3.14122
   D13        3.14128   0.00000  -0.00000   0.00000   0.00000   3.14128
   D14        1.10553   0.00003   0.00048   0.00000   0.00049   1.10602
   D15       -1.01822   0.00001   0.00024   0.00001   0.00025  -1.01797
   D16       -1.10617  -0.00003  -0.00048   0.00000  -0.00048  -1.10665
   D17        3.14128  -0.00000  -0.00000   0.00000   0.00000   3.14128
   D18        1.01752  -0.00001  -0.00024   0.00001  -0.00024   1.01729
   D19        1.04363   0.00000  -0.00005   0.00010   0.00005   1.04368
   D20        3.14158  -0.00000   0.00000  -0.00001  -0.00000   3.14158
   D21       -1.04366  -0.00000   0.00005  -0.00011  -0.00006  -1.04372
   D22       -3.12149   0.00000   0.00013   0.00003   0.00016  -3.12133
   D23       -1.02354   0.00000   0.00018  -0.00007   0.00011  -1.02344
   D24        1.07441  -0.00000   0.00023  -0.00018   0.00005   1.07446
   D25       -1.07449   0.00000  -0.00023   0.00018  -0.00005  -1.07454
   D26        1.02346  -0.00000  -0.00018   0.00007  -0.00011   1.02335
   D27        3.12141  -0.00000  -0.00013  -0.00004  -0.00016   3.12125
         Item               Value     Threshold  Converged?
 Maximum Force            0.000107     0.000450     YES
 RMS     Force            0.000043     0.000300     YES
 Maximum Displacement     0.000817     0.001800     YES
 RMS     Displacement     0.000261     0.001200     YES
 Predicted change in Energy=-2.494893D-07
 Optimization completed.
    -- Stationary point found.
                           ----------------------------
                           !   Optimized Parameters   !
                           ! (Angstroms and Degrees)  !
 --------------------------                            --------------------------
 ! Name  Definition              Value          Derivative Info.                !
 --------------------------------------------------------------------------------
 ! R1    R(1,2)                  1.0958         -DE/DX =   -0.0001              !
 ! R2    R(1,3)                  1.0966         -DE/DX =   -0.0001              !
 ! R3    R(1,4)                  1.0966         -DE/DX =   -0.0001              !
 ! R4    R(1,5)                  1.544          -DE/DX =   -0.0001              !
 ! R5    R(5,6)                  1.0983         -DE/DX =    0.0                 !
 ! R6    R(5,7)                  1.0983         -DE/DX =    0.0                 !
 ! R7    R(5,8)                  1.5445         -DE/DX =    0.0001              !
[...]
           A3         111.21175 111.19370 111.18579 111.18647 111.18065
           A4         108.11307 108.10800 108.09079 108.07790 108.07337
           A5         110.57285 110.72602 110.82870 110.85719 110.80297
           A6         110.39873 110.26132 110.19739 110.18239 110.24898
           A7         109.17282 109.66528 110.08905 110.31789 110.29967
           A8         108.95205 108.56135 108.36148 108.41876 108.69656
           A9         112.55285 112.60013 112.61497 112.51558 112.41646
           A10        106.80631 106.80124 106.83739 106.91986 107.00609
           A11        109.96666 110.01240 109.95456 109.79580 109.57274
           A12        109.21981 109.01894 108.79397 108.69165 108.68388
           A13        109.20022 109.01026 108.79485 108.69731 108.68992
           A14        109.94560 110.00172 109.95625 109.80634 109.58296
           A15        112.54433 112.59704 112.61342 112.51209 112.41948
           A16        106.78934 106.78644 106.83830 106.92704 107.01805
           A17        108.95015 108.55947 108.35918 108.41259 108.69238
           A18        109.24037 109.70346 110.08951 110.30480 110.27344
           A19        110.57001 110.72394 110.82724 110.85610 110.80091
           A20        111.21146 111.19260 111.18532 111.18625 111.18480
           A21        110.44643 110.30056 110.19645 110.16339 110.21366
           A22        108.19102 108.15209 108.12553 108.12108 108.13879
           A23        108.09851 108.09472 108.09191 108.08512 108.08586
           A24        108.21993 108.27397 108.31179 108.32636 108.31456
           D1          58.31415  57.19746  56.40877  56.21575  56.64309
           D2         -57.98522 -59.14901 -60.10129 -60.55395 -60.38294
           D3        -179.28338-179.95486 179.50197 179.20113 179.25681
           D4         -61.93035 -63.08292 -63.88386 -64.08246 -63.63176
           D5        -178.22972-179.42938 179.60608 179.14783 179.34221
           D6          60.47211  59.76476  59.20934  58.90292  58.98197
           D7         178.47475 177.31892 176.51506 176.32402 176.77198
           D8          62.17538  60.97246  60.00499  59.55431  59.74595
           D9         -59.12279 -59.83340 -60.39174 -60.69060 -60.61430
           D10         -1.14507   9.44581  19.83442  29.89771  39.61050
           D11       -118.00175-107.32884 -96.85215 -86.75530 -77.02282
           D12        119.97860 129.97888 139.97884 149.97890 159.97882
           D13        120.80888 132.09879 143.00271 153.17514 162.63306
           D14          3.95221  15.32414  26.31614  36.52213  45.99974
           D15       -118.06744-107.36814 -96.85288 -86.74367 -76.99862
           D16       -122.29039-111.09757-100.31328 -90.18961 -80.75707
           D17        120.85293 132.12778 143.00015 153.15739 162.60961
           D18         -1.16671   9.43550  19.83113  29.89159  39.61125
           D19         60.48491  59.80509  59.20823  58.90907  58.97662
           D20       -179.29490-179.93336 179.50067 179.21589 179.26779
           D21        -59.12071 -59.80051 -60.39271 -60.68047 -60.61107
           D22       -178.24861-179.40323 179.60353 179.15471 179.34353
           D23        -58.02842 -59.14167 -60.10404 -60.53847 -60.36531
           D24         62.14578  60.99118  60.00259  59.56517  59.75583
           D25        -61.93307 -63.05446 -63.88638 -64.07786 -63.63335
           D26         58.28712  57.20710  56.40605  56.22895  56.65781
           D27        178.46131 177.33995 176.51268 176.33259 176.77895
                          36        37
     Eigenvalues --    -0.60315  -0.60349
           R1           1.09572   1.09571
           R2           1.09663   1.09645
           R3           1.09626   1.09643
           R4           1.54383   1.54373
           R5           1.09780   1.09830
           R6           1.09861   1.09829
           R7           1.54571   1.54463
           R8           1.09861   1.09829
           R9           1.09780   1.09830
           R10          1.54383   1.54374
           R11          1.09663   1.09645
           R12          1.09571   1.09570
           R13          1.09627   1.09644
           A1         108.16673 108.21860
           A2         108.27154 108.21971
           A3         111.18148 111.17229
           A4         108.08055 108.08367
           A5         110.68130 110.52310
           A6         110.35616 110.52057
           A7         110.03212 109.60832
           A8         109.13082 109.61196
           A9         112.34839 112.32472
           A10        107.07573 107.09991
           A11        109.30266 109.02038
           A12        108.80228 109.03361
           A13        108.80202 109.03022
           A14        109.30423 109.01587
           A15        112.34678 112.32742
           A16        107.07542 107.10001
           A17        109.12964 109.61114
           A18        110.03394 109.61404
           A19        110.68073 110.52417
           A20        111.18016 111.17280
           A21        110.35872 110.52063
           A22        108.16658 108.21736
           A23        108.08029 108.08344
           A24        108.27127 108.21948
           D1          57.54739  58.61386
           D2         -59.66496 -58.66368
           D3         179.57404 179.96542
           D4         -62.69672 -61.58394
           D5        -179.90907-178.86149
           D6          59.32993  59.76761
           D7         177.70680 178.81138
           D8          60.49445  61.53384
           D9         -60.26656 -59.83706
           D10         49.03155  58.27889
           D11        -67.57869 -58.32791
           D12        169.97884 179.97865
           D13        171.47167 179.96645
           D14         54.86143  63.35965
           D15        -67.58104 -58.33379
           D16        -71.91845 -63.42247
           D17        171.47131 179.97073
           D18         49.02884  58.27728
           D19         59.32843  59.77675
           D20        179.57110 179.97404
           D21        -60.26900 -59.82836
           D22       -179.91275-178.85542
           D23        -59.67008 -58.65813
           D24         60.48982  61.53948
           D25        -62.70041 -61.57488
           D26         57.54226  58.62241
           D27        177.70215 178.82002
 GradGradGradGradGradGradGradGradGradGradGradGradGradGradGradGradGradGrad

                          Input orientation:                          
 ---------------------------------------------------------------------
 Center     Atomic      Atomic             Coordinates (Angstroms)
 Number     Number       Type             X           Y           Z
 ---------------------------------------------------------------------
      1          6           0       -3.021507   -1.455439    1.034169
      2          1           0       -3.237156   -2.196352    0.256278
      3          1           0       -3.383707   -1.848289    1.991608
      4          1           0       -1.933574   -1.338427    1.103992
      5          6           0       -3.692057   -0.101806    0.716124
      6          1           0       -4.778108   -0.240024    0.628618
      7          1           0       -3.334327    0.267813   -0.254265
      8          6           0       -3.405658    0.963286    1.797529
      9          1           0       -2.319629    1.101196    1.885591
     10          1           0       -3.763969    0.593597    2.767684
     11          6           0       -4.075748    2.317103    1.479278
     12          1           0       -5.163630    2.200261    1.408122
     13          1           0       -3.860966    3.057672    2.257730
     14          1           0       -3.712377    2.710297    0.522443
 ---------------------------------------------------------------------
                    Distance matrix (angstroms):
                    1          2          3          4          5
     1  C    0.000000
     2  H    1.095706   0.000000
     3  H    1.096454   1.775949   0.000000
     4  H    1.096433   1.775945   1.775023   0.000000
     5  C    1.543733   2.192149   2.184524   2.184476   0.000000
     6  H    2.174247   2.518013   2.527571   3.086073   1.098303
     7  H    2.174285   2.518374   3.086142   2.527248   1.098291
     8  C    2.565252   3.519540   2.818351   2.818849   1.544630
     9  H    2.784589   3.790823   3.137350   2.590695   2.167585
    10  H    2.784757   3.790581   2.590309   3.138620   2.167408
    11  C    3.942286   4.750815   4.253457   4.253546   2.565296
    12  H    4.253548   4.936421   4.460868   4.800841   2.818493
    13  H    4.750785   5.656829   4.936300   4.936765   3.519571
    14  H    4.253530   4.936789   4.800748   4.460326   2.818838
                    6          7          8          9         10
     6  H    0.000000
     7  H    1.766885   0.000000
     8  C    2.167470   2.167632   0.000000
     9  H    3.069686   2.510602   1.098287   0.000000
    10  H    2.509782   3.069675   1.098298   1.766880   0.000000
    11  C    2.784930   2.784684   1.543737   2.174276   2.174321
    12  H    2.590607   3.137552   2.184538   3.086140   2.527614
    13  H    3.790773   3.790881   2.192155   2.518334   2.518160
    14  H    3.138702   2.590738   2.184483   2.527277   3.086129
                   11         12         13         14
    11  C    0.000000
    12  H    1.096450   0.000000
    13  H    1.095701   1.775928   0.000000
    14  H    1.096436   1.775020   1.775941   0.000000
 Stoichiometry    C4H10
 Framework group  C1[X(C4H10)]
 Deg. of freedom    36
 Full point group                 C1      NOp   1
 Largest Abelian subgroup         C1      NOp   1
 Largest concise Abelian subgroup C1      NOp   1
                         Standard orientation:                         
 ---------------------------------------------------------------------
 Center     Atomic      Atomic             Coordinates (Angstroms)
 Number     Number       Type             X           Y           Z
 ---------------------------------------------------------------------
      1          6           0       -1.967295    0.122940    0.000138
      2          1           0       -2.755468   -0.638213   -0.000482
      3          1           0       -2.099192    0.753712   -0.886959
      4          1           0       -2.099369    0.752470    0.888064
      5          6           0       -0.566232   -0.525239   -0.000130
      6          1           0       -0.457849   -1.168422   -0.883780
      7          1           0       -0.457685   -1.168943    0.883105
      8          6           0        0.566221    0.525204   -0.000132
      9          1           0        0.457641    1.168856    0.883134
     10          1           0        0.457705    1.168406   -0.883746
     11          6           0        1.967318   -0.122910    0.000133
     12          1           0        2.099320   -0.753550   -0.887037
     13          1           0        2.755458    0.638270   -0.000336
     14          1           0        2.099369   -0.752558    0.887983
 ---------------------------------------------------------------------
 Rotational constants (GHZ):          23.0616033           3.5887771           3.3671047

 **********************************************************************

            Population analysis using the SCF Density.

 **********************************************************************

 Orbital symmetries:
       Occupied  (A) (A) (A) (A) (A) (A) (A) (A) (A) (A) (A) (A)
                 (A) (A) (A) (A) (A)
       Virtual   (A) (A) (A) (A) (A) (A) (A) (A) (A) (A) (A) (A)
                 (A) (A) (A) (A) (A) (A) (A) (A) (A) (A) (A) (A)
                 (A) (A) (A) (A) (A) (A) (A) (A) (A) (A) (A) (A)
                 (A) (A) (A)
 The electronic state is 1-A.
 Alpha  occ. eigenvalues --  -10.11144 -10.11078 -10.10445 -10.10420  -0.78771
 Alpha  occ. eigenvalues --   -0.71854  -0.62606  -0.57205  -0.46515  -0.42248
 Alpha  occ. eigenvalues --   -0.41460  -0.40758  -0.36495  -0.34747  -0.32823
 Alpha  occ. eigenvalues --   -0.31920  -0.31730
 Alpha virt. eigenvalues --    0.11812   0.14576   0.15335   0.16673   0.18997
 Alpha virt. eigenvalues --    0.20356   0.20390   0.21062   0.21988   0.22283
 Alpha virt. eigenvalues --    0.25870   0.27422   0.27487   0.68408   0.68429
 Alpha virt. eigenvalues --    0.68509   0.72613   0.76656   0.76767   0.79088
 Alpha virt. eigenvalues --    0.82345   0.85517   0.91542   0.95436   0.96216
 Alpha virt. eigenvalues --    1.05233   1.07087   1.07443   1.09439   1.10289
 Alpha virt. eigenvalues --    1.13250   1.13424   1.15737   1.17267   1.29078
 Alpha virt. eigenvalues --    1.62225   1.89257   2.02727   2.29418
          Condensed to atoms (all electrons):
               1          2          3          4          5          6
     1  C    5.313792   0.366077   0.366729   0.366727   0.284337  -0.040976
     2  H    0.366077   0.540112  -0.027880  -0.027878  -0.035155  -0.001747
     3  H    0.366729  -0.027880   0.545425  -0.029252  -0.042108  -0.002778
     4  H    0.366727  -0.027878  -0.029252   0.545419  -0.042109   0.003638
     5  C    0.284337  -0.035155  -0.042108  -0.042109   5.339984   0.370070
     6  H   -0.040976  -0.001747  -0.002778   0.003638   0.370070   0.562496
     7  H   -0.040966  -0.001740   0.003638  -0.002784   0.370081  -0.032344
     8  C   -0.065808   0.003470  -0.002265  -0.002261   0.283213  -0.045430
     9  H   -0.001065  -0.000028  -0.000230   0.003978  -0.045429   0.004060
    10  H   -0.001065  -0.000029   0.003982  -0.000229  -0.045438  -0.003356
    11  C    0.003523  -0.000080  -0.000011  -0.000011  -0.065798  -0.001064
    12  H   -0.000011   0.000001   0.000000   0.000003  -0.002264   0.003979
    13  H   -0.000080   0.000001   0.000001   0.000001   0.003469  -0.000029
    14  H   -0.000011   0.000001   0.000003   0.000000  -0.002262  -0.000229
               7          8          9         10         11         12
     1  C   -0.040966  -0.065808  -0.001065  -0.001065   0.003523  -0.000011
     2  H   -0.001740   0.003470  -0.000028  -0.000029  -0.000080   0.000001
     3  H    0.003638  -0.002265  -0.000230   0.003982  -0.000011   0.000000
     4  H   -0.002784  -0.002261   0.003978  -0.000229  -0.000011   0.000003
     5  C    0.370081   0.283213  -0.045429  -0.045438  -0.065798  -0.002264
     6  H   -0.032344  -0.045430   0.004060  -0.003356  -0.001064   0.003979
     7  H    0.562466  -0.045423  -0.003347   0.004060  -0.001065  -0.000230
     8  C   -0.045423   5.339966   0.370080   0.370071   0.284344  -0.042105
     9  H   -0.003347   0.370080   0.562471  -0.032344  -0.040969   0.003638
    10  H    0.004060   0.370071  -0.032344   0.562489  -0.040965  -0.002778
    11  C   -0.001065   0.284344  -0.040969  -0.040965   5.313771   0.366728
    12  H   -0.000230  -0.042105   0.003638  -0.002778   0.366728   0.545423
    13  H   -0.000028  -0.035154  -0.001741  -0.001746   0.366075  -0.027882
    14  H    0.003978  -0.042108  -0.002783   0.003638   0.366729  -0.029252
              13         14
     1  C   -0.000080  -0.000011
     2  H    0.000001   0.000001
     3  H    0.000001   0.000003
     4  H    0.000001   0.000000
     5  C    0.003469  -0.002262
     6  H   -0.000029  -0.000229
     7  H   -0.000028   0.003978
     8  C   -0.035154  -0.042108
     9  H   -0.001741  -0.002783
    10  H   -0.001746   0.003638
    11  C    0.366075   0.366729
    12  H   -0.027882  -0.029252
    13  H    0.540112  -0.027879
    14  H   -0.027879   0.545417
 Mulliken charges:
               1
     1  C   -0.551203
     2  H    0.184877
     3  H    0.184746
     4  H    0.184757
     5  C   -0.370592
     6  H    0.183708
     7  H    0.183704
     8  C   -0.370589
     9  H    0.183708
    10  H    0.183709
    11  C   -0.551210
    12  H    0.184748
    13  H    0.184880
    14  H    0.184757
 Sum of Mulliken charges =  -0.00000
 Mulliken charges with hydrogens summed into heavy atoms:
               1
     1  C    0.003177
     5  C   -0.003180
     8  C   -0.003172
    11  C    0.003176
 Electronic spatial extent (au):  <R**2>=            428.2437
 Charge=              0.0000 electrons
 Dipole moment (field-independent basis, Debye):
    X=             -0.0000    Y=             -0.0000    Z=             -0.0000  Tot=              0.0000
 Quadrupole moment (field-independent basis, Debye-Ang):
   XX=            -28.6550   YY=            -28.3027   ZZ=            -27.9031
   XY=              0.1851   XZ=              0.0001   YZ=             -0.0000
 Traceless Quadrupole moment (field-independent basis, Debye-Ang):
   XX=             -0.3681   YY=             -0.0158   ZZ=              0.3838
   XY=              0.1851   XZ=              0.0001   YZ=             -0.0000
 Octapole moment (field-independent basis, Debye-Ang**2):
  XXX=              0.0006  YYY=             -0.0001  ZZZ=              0.0014  XYY=             -0.0001
  XXY=             -0.0003  XXZ=             -0.0009  XZZ=             -0.0000  YZZ=             -0.0000
  YYZ=             -0.0007  XYZ=             -0.0002
 Hexadecapole moment (field-independent basis, Debye-Ang**3):
 XXXX=           -448.3677 YYYY=            -86.5784 ZZZZ=            -54.5442 XXXY=              6.4157
 XXXZ=              0.0003 YYYX=              0.7311 YYYZ=             -0.0004 ZZZX=             -0.0005
 ZZZY=              0.0001 XXYY=            -86.5273 XXZZ=            -83.5169 YYZZ=            -21.0331
 XXYZ=              0.0005 YYXZ=              0.0005 ZZXY=             -2.1393
 N-N= 1.297929378687D+02 E-N=-6.231104648491D+02  KE= 1.561243514251D+02
 1\1\GINC-DESKTOP-JPBO6QE\Scan\RB3LYP\3-21G\C4H10\LEOS\14-Oct-2019\0\\#
  opt=modredundant b3lyp/3-21g geom=connectivity\\Title Card Required\\
 0,1\C,-3.0215068294,-1.4554386519,1.0341688433\H,-3.2371561633,-2.1963
 522131,0.2562782288\H,-3.3837065601,-1.8482892913,1.9916082914\H,-1.93
 35735044,-1.3384273854,1.1039917263\C,-3.692056679,-0.1018060081,0.716
 1238395\H,-4.7781078669,-0.2400242841,0.6286181802\H,-3.3343274465,0.2
 678131477,-0.2542646881\C,-3.4056584648,0.963285715,1.7975288808\H,-2.
 3196287174,1.1011958138,1.885591451\H,-3.7639689521,0.5935967108,2.767
 6844237\C,-4.0757477096,2.3171032454,1.4792784424\H,-5.1636295184,2.20
 02610656,1.4081220088\H,-3.8609657687,3.0576722552,2.2577296674\H,-3.7
 123770096,2.7102971405,0.5224434445\\Version=ES64L-G16RevB.01\State=1-
 A\HF=-157.6034882,-157.6031503,-157.6022124,-157.6009003,-157.5995505,
 -157.5985309,-157.5981348,-157.5984796,-157.5994635,-157.6007508,-157.
 6018636,-157.6024151,-157.6022752,-157.6014493,-157.6000233,-157.59823
 13,-157.596449,-157.5951161,-157.5946141,-157.5951118,-157.5964421,-15
 7.5982233,-157.6000161,-157.6014443,-157.6022731,-157.602416,-157.6018
 673,-157.6007562,-157.5994686,-157.5984824,-157.5981342,-157.5985275,-
 157.5995452,-157.6008943,-157.6022074,-157.6031475,-157.6034885\RMSD=1
 .523e-09,3.339e-09,4.780e-09,4.220e-09,5.632e-09,5.676e-09,6.734e-09,5
 .084e-09,4.883e-09,2.480e-09,2.476e-09,4.878e-09,4.421e-09,7.293e-10,4
 .419e-09,7.161e-09,6.907e-09,4.422e-09,7.472e-09,9.425e-09,3.498e-09,6
 .512e-09,7.452e-09,8.412e-10,7.406e-09,2.474e-09,4.307e-09,3.221e-09,3
 .684e-09,5.623e-09,5.358e-09,4.646e-09,4.043e-09,7.941e-09,8.873e-09,3
 .170e-09,5.774e-09\PG=C01 [X(C4H10)]\\@


      TO SUSPECT YOUR OWN MORTALITY IS TO KNOW THE BEGINNING OF TERROR.
      TO LEARN IRREFUTABLY THAT YOU ARE MORTAL IS TO KNOW THE END
      OF TERROR.

                                                  -- JESSICA
                                                     CHILDREN OF DUNE
                                                     BY FRANK HERBERT
 Job cpu time:       0 days  1 hours 35 minutes 45.7 seconds.
 Elapsed time:       0 days  0 hours  8 minutes 31.3 seconds.
 File lengths (MBytes):  RWF=     10 Int=      0 D2E=      0 Chk=      4 Scr=      1
 Normal termination of Gaussian 16 at Mon Oct 14 21:30:50 2019.
