 Entering Gaussian System, Link 0=g16
 Input=HBr.com
 Output=HBr.log
 Initial command:
 /opt/g16/l1.exe "/home/montoya/Montoya/Moleculas/HBr/Gau-3591.inp" -scrdir="/home/montoya/Montoya/Moleculas/HBr/"
 Entering Link 1 = /opt/g16/l1.exe PID=      3593.
  
 Copyright (c) 1988-2017, Gaussian, Inc.  All Rights Reserved.
  
 This is part of the Gaussian(R) 16 program.  It is based on
 the Gaussian(R) 09 system (copyright 2009, Gaussian, Inc.),
 the Gaussian(R) 03 system (copyright 2003, Gaussian, Inc.),
 the Gaussian(R) 98 system (copyright 1998, Gaussian, Inc.),
 the Gaussian(R) 94 system (copyright 1995, Gaussian, Inc.),
 the Gaussian 92(TM) system (copyright 1992, Gaussian, Inc.),
 the Gaussian 90(TM) system (copyright 1990, Gaussian, Inc.),
 the Gaussian 88(TM) system (copyright 1988, Gaussian, Inc.),
 the Gaussian 86(TM) system (copyright 1986, Carnegie Mellon
 University), and the Gaussian 82(TM) system (copyright 1983,
 Carnegie Mellon University). Gaussian is a federally registered
 trademark of Gaussian, Inc.
  
 This software contains proprietary and confidential information,
 including trade secrets, belonging to Gaussian, Inc.
  
 This software is provided under written license and may be
 used, copied, transmitted, or stored only in accord with that
 written license.
  
 The following legend is applicable only to US Government
 contracts under FAR:
  
                    RESTRICTED RIGHTS LEGEND
  
 Use, reproduction and disclosure by the US Government is
 subject to restrictions as set forth in subparagraphs (a)
 and (c) of the Commercial Computer Software - Restricted
 Rights clause in FAR 52.227-19.
  
 Gaussian, Inc.
 340 Quinnipiac St., Bldg. 40, Wallingford CT 06492
  
  
 ---------------------------------------------------------------
 Warning -- This program may not be used in any manner that
 competes with the business of Gaussian, Inc. or will provide
 assistance to any competitor of Gaussian, Inc.  The licensee
 of this program is prohibited from giving any competitor of
 Gaussian, Inc. access to this program.  By using this program,
 the user acknowledges that Gaussian, Inc. is engaged in the
 business of creating and licensing software in the field of
 computational chemistry and represents and warrants to the
 licensee that it is not a competitor of Gaussian, Inc. and that
 it will not use this program in any manner prohibited above.
 ---------------------------------------------------------------
  

 Cite this work as:
 Gaussian 16, Revision B.01,
 M. J. Frisch, G. W. Trucks, H. B. Schlegel, G. E. Scuseria, 
 M. A. Robb, J. R. Cheeseman, G. Scalmani, V. Barone, 
 G. A. Petersson, H. Nakatsuji, X. Li, M. Caricato, A. V. Marenich, 
 J. Bloino, B. G. Janesko, R. Gomperts, B. Mennucci, H. P. Hratchian, 
 J. V. Ortiz, A. F. Izmaylov, J. L. Sonnenberg, D. Williams-Young, 
 F. Ding, F. Lipparini, F. Egidi, J. Goings, B. Peng, A. Petrone, 
 T. Henderson, D. Ranasinghe, V. G. Zakrzewski, J. Gao, N. Rega, 
 G. Zheng, W. Liang, M. Hada, M. Ehara, K. Toyota, R. Fukuda, 
 J. Hasegawa, M. Ishida, T. Nakajima, Y. Honda, O. Kitao, H. Nakai, 
 T. Vreven, K. Throssell, J. A. Montgomery, Jr., J. E. Peralta, 
 F. Ogliaro, M. J. Bearpark, J. J. Heyd, E. N. Brothers, K. N. Kudin, 
 V. N. Staroverov, T. A. Keith, R. Kobayashi, J. Normand, 
 K. Raghavachari, A. P. Rendell, J. C. Burant, S. S. Iyengar, 
 J. Tomasi, M. Cossi, J. M. Millam, M. Klene, C. Adamo, R. Cammi, 
 J. W. Ochterski, R. L. Martin, K. Morokuma, O. Farkas, 
 J. B. Foresman, and D. J. Fox, Gaussian, Inc., Wallingford CT, 2016.
 
 ******************************************
 Gaussian 16:  EM64L-G16RevB.01 20-Dec-2017
                11-Feb-2019 
 ******************************************
 %Chk=HBr.chk
 --------------------------------
 #n B3LYP/6-31+G(d,p) Opt Pop=NPA
 --------------------------------
 1/18=20,19=15,26=3,38=1/1,3;
 2/9=110,12=2,17=6,18=5,40=1/2;
 3/5=1,6=6,7=111,11=2,25=1,30=1,71=1,74=-5/1,2,3;
 4//1;
 5/5=2,38=5/2;
 6/7=2,8=2,9=2,10=2,28=1,40=-1/1,7;
 7//1,2,3,16;
 1/18=20,19=15,26=3/3(2);
 2/9=110/2;
 99//99;
 2/9=110/2;
 3/5=1,6=6,7=111,11=2,25=1,30=1,71=1,74=-5/1,2,3;
 4/5=5,16=3,69=1/1;
 5/5=2,38=5/2;
 7//1,2,3,16;
 1/18=20,19=15,26=3/3(-5);
 2/9=110/2;
 6/7=2,8=2,9=2,10=2,19=2,28=1,40=-1/1,7;
 99/9=1/99;
 ---
 HBr
 ---
 Symbolic Z-matrix:
 Charge =  0 Multiplicity = 1
 Br                   -4.96714   1.04568  -0.77141 
 H                    -3.43818   1.04568  -0.77141 
 

 GradGradGradGradGradGradGradGradGradGradGradGradGradGradGradGradGradGrad
 Berny optimization.
 Initialization pass.
                           ----------------------------
                           !    Initial Parameters    !
                           ! (Angstroms and Degrees)  !
 --------------------------                            --------------------------
 ! Name  Definition              Value          Derivative Info.                !
 --------------------------------------------------------------------------------
 ! R1    R(1,2)                  1.529          estimate D2E/DX2                !
 --------------------------------------------------------------------------------
 Trust Radius=3.00D-01 FncErr=1.00D-07 GrdErr=1.00D-06 EigMax=2.50D+02 EigMin=1.00D-04
 Number of steps in this run=     20 maximum allowed number of steps=    100.
 GradGradGradGradGradGradGradGradGradGradGradGradGradGradGradGradGradGrad

                          Input orientation:                          
 ---------------------------------------------------------------------
 Center     Atomic      Atomic             Coordinates (Angstroms)
 Number     Number       Type             X           Y           Z
 ---------------------------------------------------------------------
      1         35           0       -4.967140    1.045680   -0.771410
      2          1           0       -3.438180    1.045680   -0.771410
 ---------------------------------------------------------------------
 Stoichiometry    BrH
 Framework group  C*V[C*(HBr)]
 Deg. of freedom     1
 Full point group                 C*V     NOp   4
 Largest Abelian subgroup         C2V     NOp   4
 Largest concise Abelian subgroup C1      NOp   1
                         Standard orientation:                         
 ---------------------------------------------------------------------
 Center     Atomic      Atomic             Coordinates (Angstroms)
 Number     Number       Type             X           Y           Z
 ---------------------------------------------------------------------
      1         35           0        0.000000    0.000000    0.042471
      2          1           0        0.000000    0.000000   -1.486489
 ---------------------------------------------------------------------
 Rotational constants (GHZ):           0.0000000         217.2455270         217.2455270
 Standard basis: 6-31+G(d,p) (6D, 7F)
 There are    21 symmetry adapted cartesian basis functions of A1  symmetry.
 There are     2 symmetry adapted cartesian basis functions of A2  symmetry.
 There are     8 symmetry adapted cartesian basis functions of B1  symmetry.
 There are     8 symmetry adapted cartesian basis functions of B2  symmetry.
 There are    21 symmetry adapted basis functions of A1  symmetry.
 There are     2 symmetry adapted basis functions of A2  symmetry.
 There are     8 symmetry adapted basis functions of B1  symmetry.
 There are     8 symmetry adapted basis functions of B2  symmetry.
    39 basis functions,    94 primitive gaussians,    39 cartesian basis functions
    18 alpha electrons       18 beta electrons
       nuclear repulsion energy        12.1135951118 Hartrees.
 NAtoms=    2 NActive=    2 NUniq=    2 SFac= 1.00D+00 NAtFMM=   60 NAOKFM=F Big=F
 Integral buffers will be    131072 words long.
 Raffenetti 2 integral format.
 Two-electron integral symmetry is turned on.
 One-electron integrals computed using PRISM.
 NBasis=    39 RedAO= T EigKep=  7.14D-04  NBF=    21     2     8     8
 NBsUse=    39 1.00D-06 EigRej= -1.00D+00 NBFU=    21     2     8     8
 ExpMin= 3.50D-02 ExpMax= 5.74D+05 ExpMxC= 5.74D+03 IAcc=3 IRadAn=         5 AccDes= 0.00D+00
 Harris functional with IExCor=  402 and IRadAn=       5 diagonalized for initial guess.
 HarFok:  IExCor=  402 AccDes= 0.00D+00 IRadAn=         5 IDoV= 1 UseB2=F ITyADJ=14
 ICtDFT=  3500011 ScaDFX=  1.000000  1.000000  1.000000  1.000000
 FoFCou: FMM=F IPFlag=           0 FMFlag=      100000 FMFlg1=           0
         NFxFlg=           0 DoJE=T BraDBF=F KetDBF=T FulRan=T
         wScrn=  0.000000 ICntrl=       500 IOpCl=  0 I1Cent=   200000004 NGrid=           0
         NMat0=    1 NMatS0=      1 NMatT0=    0 NMatD0=    1 NMtDS0=    0 NMtDT0=    0
 Petite list used in FoFCou.
 Initial guess orbital symmetries:
       Occupied  (SG) (SG) (SG) (PI) (PI) (SG) (SG) (PI) (PI) (SG)
                 (PI) (PI) (DLTA) (DLTA) (SG) (SG) (PI) (PI)
       Virtual   (SG) (SG) (SG) (PI) (PI) (PI) (PI) (SG) (DLTA)
                 (DLTA) (SG) (PI) (PI) (SG) (SG) (SG) (PI) (PI)
                 (SG) (SG) (SG)
 The electronic state of the initial guess is 1-SG.
 Keep R1 ints in memory in symmetry-blocked form, NReq=1293347.
 Requested convergence on RMS density matrix=1.00D-08 within 128 cycles.
 Requested convergence on MAX density matrix=1.00D-06.
 Requested convergence on             energy=1.00D-06.
 No special actions if energy rises.
 SCF Done:  E(RB3LYP) =  -2572.31532337     A.U. after    9 cycles
            NFock=  9  Conv=0.27D-08     -V/T= 2.0063

 **********************************************************************

            Population analysis using the SCF Density.

 **********************************************************************

 Orbital symmetries:
       Occupied  (SG) (SG) (SG) (PI) (PI) (SG) (SG) (PI) (PI) (SG)
                 (PI) (PI) (DLTA) (DLTA) (SG) (SG) (PI) (PI)
       Virtual   (SG) (SG) (SG) (PI) (PI) (SG) (PI) (PI) (DLTA)
                 (DLTA) (SG) (PI) (PI) (SG) (SG) (SG) (PI) (PI)
                 (SG) (SG) (SG)
 The electronic state is 1-SG.
 Alpha  occ. eigenvalues -- -482.93680 -61.89773 -56.41703 -56.41312 -56.41312
 Alpha  occ. eigenvalues --   -8.60672  -6.56037  -6.54692  -6.54692  -2.67591
 Alpha  occ. eigenvalues --   -2.67196  -2.67196  -2.66127  -2.66127  -0.78506
 Alpha  occ. eigenvalues --   -0.44083  -0.30965  -0.30965
 Alpha virt. eigenvalues --   -0.04978   0.03202   0.04373   0.05316   0.05316
 Alpha virt. eigenvalues --    0.38713   0.42517   0.42517   0.46138   0.46138
 Alpha virt. eigenvalues --    0.50159   0.59568   0.59568   0.60527   0.95801
 Alpha virt. eigenvalues --    1.65354   2.04106   2.04106   2.49705   8.70923
 Alpha virt. eigenvalues --   75.36255
          Condensed to atoms (all electrons):
               1          2
     1  Br  34.922487   0.277458
     2  H    0.277458   0.522597
 Mulliken charges:
               1
     1  Br  -0.199945
     2  H    0.199945
 Sum of Mulliken charges =  -0.00000
 Mulliken charges with hydrogens summed into heavy atoms:
               1
     1  Br  -0.000000
 Electronic spatial extent (au):  <R**2>=             49.8687
 Charge=             -0.0000 electrons
 Dipole moment (field-independent basis, Debye):
    X=              0.0000    Y=             -0.0000    Z=             -1.1012  Tot=              1.1012
 Quadrupole moment (field-independent basis, Debye-Ang):
   XX=            -20.3476   YY=            -20.3476   ZZ=            -15.4633
   XY=             -0.0000   XZ=             -0.0000   YZ=              0.0000
 Traceless Quadrupole moment (field-independent basis, Debye-Ang):
   XX=             -1.6281   YY=             -1.6281   ZZ=              3.2562
   XY=             -0.0000   XZ=             -0.0000   YZ=              0.0000
 Octapole moment (field-independent basis, Debye-Ang**2):
  XXX=             -0.0000  YYY=              0.0000  ZZZ=             -2.1321  XYY=             -0.0000
  XXY=              0.0000  XXZ=              0.3744  XZZ=              0.0000  YZZ=             -0.0000
  YYZ=              0.3744  XYZ=              0.0000
 Hexadecapole moment (field-independent basis, Debye-Ang**3):
 XXXX=            -27.3579 YYYY=            -27.3579 ZZZZ=            -22.4490 XXXY=              0.0000
 XXXZ=              0.0000 YYYX=              0.0000 YYYZ=             -0.0000 ZZZX=             -0.0000
 ZZZY=              0.0000 XXYY=             -9.1193 XXZZ=             -9.5403 YYZZ=             -9.5403
 XXYZ=             -0.0000 YYXZ=              0.0000 ZZXY=             -0.0000
 N-N= 1.211359511184D+01 E-N=-6.158542663871D+03  KE= 2.556294408358D+03
 Symmetry A1   KE= 1.845061866738D+03
 Symmetry A2   KE= 4.281370952137D+01
 Symmetry B1   KE= 3.342094160490D+02
 Symmetry B2   KE= 3.342094160490D+02
 ******************************Gaussian NBO Version 3.1******************************
             N A T U R A L   A T O M I C   O R B I T A L   A N D
          N A T U R A L   B O N D   O R B I T A L   A N A L Y S I S
 ******************************Gaussian NBO Version 3.1******************************
       /RESON  / : Allow strongly delocalized NBO set

 Analyzing the SCF density

 Job title: HBr                                                             

 Storage needed:      5043 in NPA ( 104857572 available)
 GSVD:  LWork=         647 too small for GESVD, short by         987 words or         987 for optimal perf.
 GSVD:  LWork=         647 too small for GESVD, short by         987 words or         987 for optimal perf.


 NATURAL POPULATIONS:  Natural atomic orbital occupancies 
                                                          
   NAO  Atom  No  lang   Type(AO)    Occupancy      Energy
 ----------------------------------------------------------
     1   Br    1  S      Cor( 1S)     2.00000    -475.13488
     2   Br    1  S      Cor( 2S)     1.99999     -57.56446
     3   Br    1  S      Cor( 3S)     1.99991     -20.47127
     4   Br    1  S      Val( 4S)     1.91574      -0.98231
     5   Br    1  S      Ryd( 5S)     0.00048       0.71280
     6   Br    1  S      Ryd( 7S)     0.00000       6.41050
     7   Br    1  S      Ryd( 8S)     0.00000      11.32124
     8   Br    1  S      Ryd( 9S)     0.00000      63.42896
     9   Br    1  S      Ryd( 6S)     0.00000       4.33240
    10   Br    1  px     Cor( 2p)     2.00000     -54.69977
    11   Br    1  px     Cor( 3p)     2.00000      -8.25578
    12   Br    1  px     Val( 4p)     1.99821      -0.31334
    13   Br    1  px     Ryd( 5p)     0.00042       0.28809
    14   Br    1  px     Ryd( 6p)     0.00000       0.36368
    15   Br    1  py     Cor( 2p)     2.00000     -54.69977
    16   Br    1  py     Cor( 3p)     2.00000      -8.25578
    17   Br    1  py     Val( 4p)     1.99821      -0.31334
    18   Br    1  py     Ryd( 5p)     0.00042       0.28809
    19   Br    1  py     Ryd( 6p)     0.00000       0.36368
    20   Br    1  pz     Cor( 2p)     1.99999     -54.70418
    21   Br    1  pz     Cor( 3p)     1.99993      -8.26661
    22   Br    1  pz     Val( 4p)     1.29282      -0.28766
    23   Br    1  pz     Ryd( 5p)     0.00272       0.35908
    24   Br    1  pz     Ryd( 6p)     0.00000       0.36481
    25   Br    1  dxy    Cor( 3d)     2.00000      -2.66127
    26   Br    1  dxy    Ryd( 4d)     0.00000       0.46138
    27   Br    1  dxz    Cor( 3d)     2.00000      -2.67198
    28   Br    1  dxz    Ryd( 4d)     0.00099       0.46650
    29   Br    1  dyz    Cor( 3d)     2.00000      -2.67198
    30   Br    1  dyz    Ryd( 4d)     0.00099       0.46650
    31   Br    1  dx2y2  Cor( 3d)     2.00000      -2.66127
    32   Br    1  dx2y2  Ryd( 4d)     0.00000       0.46138
    33   Br    1  dz2    Cor( 3d)     1.99982      -2.67553
    34   Br    1  dz2    Ryd( 4d)     0.00902       0.72012

    35    H    2  S      Val( 1S)     0.77752      -0.19263
    36    H    2  S      Ryd( 2S)     0.00047       0.64444
    37    H    2  px     Ryd( 2p)     0.00038       1.99603
    38    H    2  py     Ryd( 2p)     0.00038       1.99603
    39    H    2  pz     Ryd( 2p)     0.00158       2.36506

 WARNING:  Population inversion found on atom Br    1


 Summary of Natural Population Analysis:                  
                                                          
                                       Natural Population 
                Natural  -----------------------------------------------
    Atom  No    Charge         Core      Valence    Rydberg      Total
 -----------------------------------------------------------------------
     Br    1   -0.21967     27.99964     7.20498    0.01505    35.21967
      H    2    0.21967      0.00000     0.77752    0.00281     0.78033
 =======================================================================
   * Total *    0.00000     27.99964     7.98250    0.01786    36.00000

                                 Natural Population      
 --------------------------------------------------------
   Core                      27.99964 ( 99.9987% of  28)
   Valence                    7.98250 ( 99.7813% of   8)
   Natural Minimal Basis     35.98214 ( 99.9504% of  36)
   Natural Rydberg Basis      0.01786 (  0.0496% of  36)
 --------------------------------------------------------

    Atom  No          Natural Electron Configuration
 ----------------------------------------------------------------------------
     Br    1      [core]4S( 1.92)4p( 5.29)4d( 0.01)
      H    2            1S( 0.78)


 NBO analysis skipped by request.
 Calling FoFJK, ICntrl=      2127 FMM=F ISym2X=1 I1Cent= 0 IOpClX= 0 NMat=1 NMatS=1 NMatT=0.
 ***** Axes restored to original set *****
 -------------------------------------------------------------------
 Center     Atomic                   Forces (Hartrees/Bohr)
 Number     Number              X              Y              Z
 -------------------------------------------------------------------
      1       35           0.039684399   -0.000000000   -0.000000000
      2        1          -0.039684399    0.000000000    0.000000000
 -------------------------------------------------------------------
 Cartesian Forces:  Max     0.039684399 RMS     0.022911798

 GradGradGradGradGradGradGradGradGradGradGradGradGradGradGradGradGradGrad
 Berny optimization.
 FormGI is forming the generalized inverse of G from B-inverse, IUseBI=4.
 Internal  Forces:  Max     0.039684399 RMS     0.039684399
 Search for a local minimum.
 Step number   1 out of a maximum of   20
 All quantities printed in internal units (Hartrees-Bohrs-Radians)
 Mixed Optimization -- RFO/linear search
 Second derivative matrix not updated -- first step.
 The second derivative matrix:
                          R1
           R1           0.16813
 ITU=  0
     Eigenvalues ---    0.16813
 RFO step:  Lambda=-8.89617426D-03 EMin= 1.68129527D-01
 Linear search not attempted -- first point.
 Iteration  1 RMS(Cart)=  0.14142136 RMS(Int)=  0.02417309
 Iteration  2 RMS(Cart)=  0.01709296 RMS(Int)=  0.00000000
 Iteration  3 RMS(Cart)=  0.00000000 RMS(Int)=  0.00000000
 ClnCor:  largest displacement from symmetrization is 0.00D+00 for atom     0.
 Variable       Old X    -DE/DX   Delta X   Delta X   Delta X     New X
                                 (Linear)    (Quad)   (Total)
    R1        2.88932  -0.03968   0.00000  -0.22417  -0.22417   2.66514
         Item               Value     Threshold  Converged?
 Maximum Force            0.039684     0.000450     NO 
 RMS     Force            0.039684     0.000300     NO 
 Maximum Displacement     0.112087     0.001800     NO 
 RMS     Displacement     0.158514     0.001200     NO 
 Predicted change in Energy=-4.671619D-03
 GradGradGradGradGradGradGradGradGradGradGradGradGradGradGradGradGradGrad

                          Input orientation:                          
 ---------------------------------------------------------------------
 Center     Atomic      Atomic             Coordinates (Angstroms)
 Number     Number       Type             X           Y           Z
 ---------------------------------------------------------------------
      1         35           0       -4.907826    1.045680   -0.771410
      2          1           0       -3.497494    1.045680   -0.771410
 ---------------------------------------------------------------------
 Stoichiometry    BrH
 Framework group  C*V[C*(HBr)]
 Deg. of freedom     1
 Full point group                 C*V     NOp   4
 Largest Abelian subgroup         C2V     NOp   4
 Largest concise Abelian subgroup C1      NOp   1
                         Standard orientation:                         
 ---------------------------------------------------------------------
 Center     Atomic      Atomic             Coordinates (Angstroms)
 Number     Number       Type             X           Y           Z
 ---------------------------------------------------------------------
      1         35           0        0.000000    0.000000    0.039176
      2          1           0        0.000000    0.000000   -1.371157
 ---------------------------------------------------------------------
 Rotational constants (GHZ):           0.0000000         255.3288762         255.3288762
 Standard basis: 6-31+G(d,p) (6D, 7F)
 There are    21 symmetry adapted cartesian basis functions of A1  symmetry.
 There are     2 symmetry adapted cartesian basis functions of A2  symmetry.
 There are     8 symmetry adapted cartesian basis functions of B1  symmetry.
 There are     8 symmetry adapted cartesian basis functions of B2  symmetry.
 There are    21 symmetry adapted basis functions of A1  symmetry.
 There are     2 symmetry adapted basis functions of A2  symmetry.
 There are     8 symmetry adapted basis functions of B1  symmetry.
 There are     8 symmetry adapted basis functions of B2  symmetry.
    39 basis functions,    94 primitive gaussians,    39 cartesian basis functions
    18 alpha electrons       18 beta electrons
       nuclear repulsion energy        13.1325057282 Hartrees.
 NAtoms=    2 NActive=    2 NUniq=    2 SFac= 1.00D+00 NAtFMM=   60 NAOKFM=F Big=F
 Integral buffers will be    131072 words long.
 Raffenetti 2 integral format.
 Two-electron integral symmetry is turned on.
 One-electron integrals computed using PRISM.
 NBasis=    39 RedAO= T EigKep=  7.12D-04  NBF=    21     2     8     8
 NBsUse=    39 1.00D-06 EigRej= -1.00D+00 NBFU=    21     2     8     8
 Initial guess from the checkpoint file:  "HBr.chk"
 B after Tr=     0.000000   -0.000000   -0.000000
         Rot=    1.000000    0.000000    0.000000    0.000000 Ang=   0.00 deg.
 Initial guess orbital symmetries:
       Occupied  (SG) (SG) (SG) (PI) (PI) (SG) (SG) (PI) (PI) (SG)
                 (PI) (PI) (DLTA) (DLTA) (SG) (SG) (PI) (PI)
       Virtual   (SG) (SG) (SG) (PI) (PI) (SG) (PI) (PI) (DLTA)
                 (DLTA) (SG) (PI) (PI) (SG) (SG) (SG) (PI) (PI)
                 (SG) (SG) (SG)
 ExpMin= 3.50D-02 ExpMax= 5.74D+05 ExpMxC= 5.74D+03 IAcc=3 IRadAn=         5 AccDes= 0.00D+00
 Harris functional with IExCor=  402 and IRadAn=       5 diagonalized for initial guess.
 HarFok:  IExCor=  402 AccDes= 0.00D+00 IRadAn=         5 IDoV= 1 UseB2=F ITyADJ=14
 ICtDFT=  3500011 ScaDFX=  1.000000  1.000000  1.000000  1.000000
 FoFCou: FMM=F IPFlag=           0 FMFlag=      100000 FMFlg1=           0
         NFxFlg=           0 DoJE=T BraDBF=F KetDBF=T FulRan=T
         wScrn=  0.000000 ICntrl=       500 IOpCl=  0 I1Cent=   200000004 NGrid=           0
         NMat0=    1 NMatS0=      1 NMatT0=    0 NMatD0=    1 NMtDS0=    0 NMtDT0=    0
 Petite list used in FoFCou.
 Keep R1 ints in memory in symmetry-blocked form, NReq=1293347.
 Requested convergence on RMS density matrix=1.00D-08 within 128 cycles.
 Requested convergence on MAX density matrix=1.00D-06.
 Requested convergence on             energy=1.00D-06.
 No special actions if energy rises.
 SCF Done:  E(RB3LYP) =  -2572.31978582     A.U. after    9 cycles
            NFock=  9  Conv=0.26D-08     -V/T= 2.0062
 Calling FoFJK, ICntrl=      2127 FMM=F ISym2X=1 I1Cent= 0 IOpClX= 0 NMat=1 NMatS=1 NMatT=0.
 ***** Axes restored to original set *****
 -------------------------------------------------------------------
 Center     Atomic                   Forces (Hartrees/Bohr)
 Number     Number              X              Y              Z
 -------------------------------------------------------------------
      1       35          -0.004946488   -0.000000000   -0.000000000
      2        1           0.004946488   -0.000000000   -0.000000000
 -------------------------------------------------------------------
 Cartesian Forces:  Max     0.004946488 RMS     0.002855856

 GradGradGradGradGradGradGradGradGradGradGradGradGradGradGradGradGradGrad
 Berny optimization.
 Using GEDIIS/GDIIS optimizer.
 Internal  Forces:  Max     0.004946488 RMS     0.004946488
 Search for a local minimum.
 Step number   2 out of a maximum of   20
 All quantities printed in internal units (Hartrees-Bohrs-Radians)
 Mixed Optimization -- RFO/linear search
 Update second derivatives using D2CorX and points    1    2
 DE= -4.46D-03 DEPred=-4.67D-03 R= 9.55D-01
 TightC=F SS=  1.41D+00  RLast= 2.24D-01 DXNew= 5.0454D-01 6.7252D-01
 Trust test= 9.55D-01 RLast= 2.24D-01 DXMaxT set to 5.05D-01
 The second derivative matrix:
                          R1
           R1           0.19909
 ITU=  1  0
 Use linear search instead of GDIIS.
     Eigenvalues ---    0.19909
 RFO step:  Lambda= 0.00000000D+00 EMin= 1.99091186D-01
 Quartic linear search produced a step of -0.08348.
 Iteration  1 RMS(Cart)=  0.01323329 RMS(Int)=  0.00000000
 Iteration  2 RMS(Cart)=  0.00000000 RMS(Int)=  0.00000000
 ClnCor:  largest displacement from symmetrization is 0.00D+00 for atom     0.
 Variable       Old X    -DE/DX   Delta X   Delta X   Delta X     New X
                                 (Linear)    (Quad)   (Total)
    R1        2.66514   0.00495   0.01871   0.00000   0.01871   2.68386
         Item               Value     Threshold  Converged?
 Maximum Force            0.004946     0.000450     NO 
 RMS     Force            0.004946     0.000300     NO 
 Maximum Displacement     0.009357     0.001800     NO 
 RMS     Displacement     0.013233     0.001200     NO 
 Predicted change in Energy=-5.770719D-05
 GradGradGradGradGradGradGradGradGradGradGradGradGradGradGradGradGradGrad

                          Input orientation:                          
 ---------------------------------------------------------------------
 Center     Atomic      Atomic             Coordinates (Angstroms)
 Number     Number       Type             X           Y           Z
 ---------------------------------------------------------------------
      1         35           0       -4.912778    1.045680   -0.771410
      2          1           0       -3.492542    1.045680   -0.771410
 ---------------------------------------------------------------------
 Stoichiometry    BrH
 Framework group  C*V[C*(HBr)]
 Deg. of freedom     1
 Full point group                 C*V     NOp   4
 Largest Abelian subgroup         C2V     NOp   4
 Largest concise Abelian subgroup C1      NOp   1
                         Standard orientation:                         
 ---------------------------------------------------------------------
 Center     Atomic      Atomic             Coordinates (Angstroms)
 Number     Number       Type             X           Y           Z
 ---------------------------------------------------------------------
      1         35           0        0.000000    0.000000    0.039451
      2          1           0        0.000000    0.000000   -1.380785
 ---------------------------------------------------------------------
 Rotational constants (GHZ):           0.0000000         251.7804437         251.7804437
 Standard basis: 6-31+G(d,p) (6D, 7F)
 There are    21 symmetry adapted cartesian basis functions of A1  symmetry.
 There are     2 symmetry adapted cartesian basis functions of A2  symmetry.
 There are     8 symmetry adapted cartesian basis functions of B1  symmetry.
 There are     8 symmetry adapted cartesian basis functions of B2  symmetry.
 There are    21 symmetry adapted basis functions of A1  symmetry.
 There are     2 symmetry adapted basis functions of A2  symmetry.
 There are     8 symmetry adapted basis functions of B1  symmetry.
 There are     8 symmetry adapted basis functions of B2  symmetry.
    39 basis functions,    94 primitive gaussians,    39 cartesian basis functions
    18 alpha electrons       18 beta electrons
       nuclear repulsion energy        13.0409319680 Hartrees.
 NAtoms=    2 NActive=    2 NUniq=    2 SFac= 1.00D+00 NAtFMM=   60 NAOKFM=F Big=F
 Integral buffers will be    131072 words long.
 Raffenetti 2 integral format.
 Two-electron integral symmetry is turned on.
 One-electron integrals computed using PRISM.
 NBasis=    39 RedAO= T EigKep=  7.12D-04  NBF=    21     2     8     8
 NBsUse=    39 1.00D-06 EigRej= -1.00D+00 NBFU=    21     2     8     8
 Initial guess from the checkpoint file:  "HBr.chk"
 B after Tr=     0.000000    0.000000   -0.000000
         Rot=    1.000000    0.000000    0.000000    0.000000 Ang=   0.00 deg.
 Initial guess orbital symmetries:
       Occupied  (SG) (SG) (SG) (PI) (PI) (SG) (SG) (PI) (PI) (SG)
                 (PI) (PI) (DLTA) (DLTA) (SG) (SG) (PI) (PI)
       Virtual   (SG) (SG) (SG) (PI) (PI) (SG) (PI) (PI) (DLTA)
                 (DLTA) (SG) (PI) (PI) (SG) (SG) (SG) (PI) (PI)
                 (SG) (SG) (SG)
 Keep R1 ints in memory in symmetry-blocked form, NReq=1293347.
 Requested convergence on RMS density matrix=1.00D-08 within 128 cycles.
 Requested convergence on MAX density matrix=1.00D-06.
 Requested convergence on             energy=1.00D-06.
 No special actions if energy rises.
 SCF Done:  E(RB3LYP) =  -2572.31983150     A.U. after    7 cycles
            NFock=  7  Conv=0.49D-08     -V/T= 2.0062
 Calling FoFJK, ICntrl=      2127 FMM=F ISym2X=1 I1Cent= 0 IOpClX= 0 NMat=1 NMatS=1 NMatT=0.
 ***** Axes restored to original set *****
 -------------------------------------------------------------------
 Center     Atomic                   Forces (Hartrees/Bohr)
 Number     Number              X              Y              Z
 -------------------------------------------------------------------
      1       35           0.000020385   -0.000000000   -0.000000000
      2        1          -0.000020385   -0.000000000   -0.000000000
 -------------------------------------------------------------------
 Cartesian Forces:  Max     0.000020385 RMS     0.000011769

 GradGradGradGradGradGradGradGradGradGradGradGradGradGradGradGradGradGrad
 Berny optimization.
 Using GEDIIS/GDIIS optimizer.
 Internal  Forces:  Max     0.000020385 RMS     0.000020385
 Search for a local minimum.
 Step number   3 out of a maximum of   20
 All quantities printed in internal units (Hartrees-Bohrs-Radians)
 Mixed Optimization -- En-DIIS/RFO-DIIS
 Update second derivatives using D2CorX and points    2    3
 DE= -4.57D-05 DEPred=-5.77D-05 R= 7.91D-01
 TightC=F SS=  1.41D+00  RLast= 1.87D-02 DXNew= 8.4853D-01 5.6144D-02
 Trust test= 7.91D-01 RLast= 1.87D-02 DXMaxT set to 5.05D-01
 The second derivative matrix:
                          R1
           R1           0.26540
 ITU=  1  1
 Use linear search instead of GDIIS.
     Eigenvalues ---    0.26540
 RFO step:  Lambda= 0.00000000D+00 EMin= 2.65399566D-01
 Quartic linear search produced a step of -0.00422.
 Iteration  1 RMS(Cart)=  0.00005582 RMS(Int)=  0.00000000
 Iteration  2 RMS(Cart)=  0.00000000 RMS(Int)=  0.00000000
 ClnCor:  largest displacement from symmetrization is 0.00D+00 for atom     0.
 Variable       Old X    -DE/DX   Delta X   Delta X   Delta X     New X
                                 (Linear)    (Quad)   (Total)
    R1        2.68386  -0.00002  -0.00008   0.00000  -0.00008   2.68378
         Item               Value     Threshold  Converged?
 Maximum Force            0.000020     0.000450     YES
 RMS     Force            0.000020     0.000300     YES
 Maximum Displacement     0.000039     0.001800     YES
 RMS     Displacement     0.000056     0.001200     YES
 Predicted change in Energy=-7.822871D-10
 Optimization completed.
    -- Stationary point found.
                           ----------------------------
                           !   Optimized Parameters   !
                           ! (Angstroms and Degrees)  !
 --------------------------                            --------------------------
 ! Name  Definition              Value          Derivative Info.                !
 --------------------------------------------------------------------------------
 ! R1    R(1,2)                  1.4202         -DE/DX =    0.0                 !
 --------------------------------------------------------------------------------
 GradGradGradGradGradGradGradGradGradGradGradGradGradGradGradGradGradGrad

                          Input orientation:                          
 ---------------------------------------------------------------------
 Center     Atomic      Atomic             Coordinates (Angstroms)
 Number     Number       Type             X           Y           Z
 ---------------------------------------------------------------------
      1         35           0       -4.912778    1.045680   -0.771410
      2          1           0       -3.492542    1.045680   -0.771410
 ---------------------------------------------------------------------
 Stoichiometry    BrH
 Framework group  C*V[C*(HBr)]
 Deg. of freedom     1
 Full point group                 C*V     NOp   4
 Largest Abelian subgroup         C2V     NOp   4
 Largest concise Abelian subgroup C1      NOp   1
                         Standard orientation:                         
 ---------------------------------------------------------------------
 Center     Atomic      Atomic             Coordinates (Angstroms)
 Number     Number       Type             X           Y           Z
 ---------------------------------------------------------------------
      1         35           0        0.000000    0.000000    0.039451
      2          1           0        0.000000    0.000000   -1.380785
 ---------------------------------------------------------------------
 Rotational constants (GHZ):           0.0000000         251.7804437         251.7804437

 **********************************************************************

            Population analysis using the SCF Density.

 **********************************************************************

 Orbital symmetries:
       Occupied  (SG) (SG) (SG) (PI) (PI) (SG) (SG) (PI) (PI) (SG)
                 (PI) (PI) (DLTA) (DLTA) (SG) (SG) (PI) (PI)
       Virtual   (SG) (SG) (SG) (PI) (PI) (SG) (PI) (PI) (DLTA)
                 (DLTA) (SG) (PI) (PI) (SG) (SG) (SG) (PI) (PI)
                 (SG) (SG) (SG)
 The electronic state is 1-SG.
 Alpha  occ. eigenvalues -- -482.93462 -61.89578 -56.41501 -56.41115 -56.41115
 Alpha  occ. eigenvalues --   -8.60553  -6.55886  -6.54589  -6.54589  -2.67478
 Alpha  occ. eigenvalues --   -2.67063  -2.67063  -2.66036  -2.66036  -0.79699
 Alpha  occ. eigenvalues --   -0.45265  -0.31122  -0.31122
 Alpha virt. eigenvalues --   -0.02674   0.04069   0.04281   0.05316   0.05316
 Alpha virt. eigenvalues --    0.38548   0.42148   0.42148   0.46026   0.46026
 Alpha virt. eigenvalues --    0.49835   0.59524   0.59524   0.61577   1.00550
 Alpha virt. eigenvalues --    1.66227   2.06729   2.06729   2.55201   8.71554
 Alpha virt. eigenvalues --   75.51859
          Condensed to atoms (all electrons):
               1          2
     1  Br  34.913412   0.288726
     2  H    0.288726   0.509136
 Mulliken charges:
               1
     1  Br  -0.202138
     2  H    0.202138
 Sum of Mulliken charges =   0.00000
 Mulliken charges with hydrogens summed into heavy atoms:
               1
     1  Br   0.000000
 Electronic spatial extent (au):  <R**2>=             48.7367
 Charge=              0.0000 electrons
 Dipole moment (field-independent basis, Debye):
    X=              0.0000    Y=              0.0000    Z=             -1.0597  Tot=              1.0597
 Quadrupole moment (field-independent basis, Debye-Ang):
   XX=            -20.2207   YY=            -20.2207   ZZ=            -15.6918
   XY=              0.0000   XZ=              0.0000   YZ=              0.0000
 Traceless Quadrupole moment (field-independent basis, Debye-Ang):
   XX=             -1.5097   YY=             -1.5097   ZZ=              3.0193
   XY=              0.0000   XZ=              0.0000   YZ=              0.0000
 Octapole moment (field-independent basis, Debye-Ang**2):
  XXX=              0.0000  YYY=              0.0000  ZZZ=             -1.7240  XYY=              0.0000
  XXY=              0.0000  XXZ=              0.2186  XZZ=              0.0000  YZZ=              0.0000
  YYZ=              0.2186  XYZ=              0.0000
 Hexadecapole moment (field-independent basis, Debye-Ang**3):
 XXXX=            -27.0517 YYYY=            -27.0517 ZZZZ=            -21.9704 XXXY=              0.0000
 XXXZ=              0.0000 YYYX=              0.0000 YYYZ=              0.0000 ZZZX=              0.0000
 ZZZY=              0.0000 XXYY=             -9.0172 XXZZ=             -9.0739 YYZZ=             -9.0739
 XXYZ=              0.0000 YYXZ=              0.0000 ZZXY=              0.0000
 N-N= 1.304093196801D+01 E-N=-6.160476274423D+03  KE= 2.556393500765D+03
 Symmetry A1   KE= 1.845169846482D+03
 Symmetry A2   KE= 4.281223888845D+01
 Symmetry B1   KE= 3.342057076970D+02
 Symmetry B2   KE= 3.342057076970D+02
 ******************************Gaussian NBO Version 3.1******************************
             N A T U R A L   A T O M I C   O R B I T A L   A N D
          N A T U R A L   B O N D   O R B I T A L   A N A L Y S I S
 ******************************Gaussian NBO Version 3.1******************************
       /RESON  / : Allow strongly delocalized NBO set

 Analyzing the SCF density

 Job title: HBr                                                             

 Storage needed:      5043 in NPA ( 104857572 available)
 GSVD:  LWork=         647 too small for GESVD, short by         987 words or         987 for optimal perf.
 GSVD:  LWork=         647 too small for GESVD, short by         987 words or         987 for optimal perf.


 NATURAL POPULATIONS:  Natural atomic orbital occupancies 
                                                          
   NAO  Atom  No  lang   Type(AO)    Occupancy      Energy
 ----------------------------------------------------------
     1   Br    1  S      Cor( 1S)     2.00000    -476.55655
     2   Br    1  S      Cor( 2S)     1.99998     -61.44124
     3   Br    1  S      Cor( 3S)     1.99986     -15.13778
     4   Br    1  S      Val( 4S)     1.89261      -0.99562
     5   Br    1  S      Ryd( 5S)     0.00087       0.69371
     6   Br    1  S      Ryd( 7S)     0.00000       3.81115
     7   Br    1  S      Ryd( 8S)     0.00000       9.60808
     8   Br    1  S      Ryd( 6S)     0.00000       1.60981
     9   Br    1  S      Ryd( 9S)     0.00000      70.58545
    10   Br    1  px     Cor( 2p)     2.00000     -54.05371
    11   Br    1  px     Cor( 3p)     2.00000      -8.89702
    12   Br    1  px     Val( 4p)     1.99751      -0.31642
    13   Br    1  px     Ryd( 5p)     0.00054       0.31188
    14   Br    1  px     Ryd( 6p)     0.00000       0.33834
    15   Br    1  py     Cor( 2p)     2.00000     -54.05371
    16   Br    1  py     Cor( 3p)     2.00000      -8.89702
    17   Br    1  py     Val( 4p)     1.99751      -0.31642
    18   Br    1  py     Ryd( 5p)     0.00054       0.31188
    19   Br    1  py     Ryd( 6p)     0.00000       0.33834
    20   Br    1  pz     Cor( 2p)     1.99998     -54.05777
    21   Br    1  pz     Cor( 3p)     1.99990      -8.90685
    22   Br    1  pz     Val( 4p)     1.30689      -0.28125
    23   Br    1  pz     Ryd( 6p)     0.00350       0.39172
    24   Br    1  pz     Ryd( 5p)     0.00000       0.33607
    25   Br    1  dxy    Cor( 3d)     2.00000      -2.66036
    26   Br    1  dxy    Ryd( 4d)     0.00000       0.46026
    27   Br    1  dxz    Cor( 3d)     2.00000      -2.67066
    28   Br    1  dxz    Ryd( 4d)     0.00139       0.47621
    29   Br    1  dyz    Cor( 3d)     2.00000      -2.67066
    30   Br    1  dyz    Ryd( 4d)     0.00139       0.47621
    31   Br    1  dx2y2  Cor( 3d)     2.00000      -2.66036
    32   Br    1  dx2y2  Ryd( 4d)     0.00000       0.46026
    33   Br    1  dz2    Cor( 3d)     1.99971      -2.67412
    34   Br    1  dz2    Ryd( 4d)     0.00926       0.79796

    35    H    2  S      Val( 1S)     0.78492      -0.16710
    36    H    2  S      Ryd( 2S)     0.00060       0.58870
    37    H    2  px     Ryd( 2p)     0.00056       2.00964
    38    H    2  py     Ryd( 2p)     0.00056       2.00964
    39    H    2  pz     Ryd( 2p)     0.00192       2.47164

 WARNING:  Population inversion found on atom Br    1


 Summary of Natural Population Analysis:                  
                                                          
                                       Natural Population 
                Natural  -----------------------------------------------
    Atom  No    Charge         Core      Valence    Rydberg      Total
 -----------------------------------------------------------------------
     Br    1   -0.21144     27.99943     7.19451    0.01750    35.21144
      H    2    0.21144      0.00000     0.78492    0.00364     0.78856
 =======================================================================
   * Total *   -0.00000     27.99943     7.97944    0.02114    36.00000

                                 Natural Population      
 --------------------------------------------------------
   Core                      27.99943 ( 99.9980% of  28)
   Valence                    7.97944 ( 99.7429% of   8)
   Natural Minimal Basis     35.97886 ( 99.9413% of  36)
   Natural Rydberg Basis      0.02114 (  0.0587% of  36)
 --------------------------------------------------------

    Atom  No          Natural Electron Configuration
 ----------------------------------------------------------------------------
     Br    1      [core]4S( 1.89)4p( 5.30)4d( 0.01)
      H    2            1S( 0.78)


 NBO analysis skipped by request.
 1\1\GINC-DYME\FOpt\RB3LYP\6-31+G(d,p)\Br1H1\MONTOYA\11-Feb-2019\0\\#n 
 B3LYP/6-31+G(d,p) Opt Pop=NPA\\HBr\\0,1\Br,-4.9127780509,1.04568,-0.77
 141\H,-3.4925419491,1.04568,-0.77141\\Version=EM64L-G16RevB.01\State=1
 -SG\HF=-2572.3198315\RMSD=4.852e-09\RMSF=1.177e-05\Dipole=0.4169276,0.
 ,0.\Quadrupole=2.2447841,-1.1223921,-1.1223921,0.,0.,0.\PG=C*V [C*(H1B
 r1)]\\@


 QUANTUM MECHANICS IS BOHRING -- M.S. GORDON
 Job cpu time:       0 days  0 hours  0 minutes 11.2 seconds.
 Elapsed time:       0 days  0 hours  0 minutes 11.5 seconds.
 File lengths (MBytes):  RWF=     17 Int=      0 D2E=      0 Chk=      2 Scr=      2
 Normal termination of Gaussian 16 at Mon Feb 11 12:09:05 2019.
