 Entering Gaussian System, Link 0=g16
 Input=HCl.com
 Output=HCl.log
 Initial command:
 /opt/g16/l1.exe "/home/montoya/Montoya/Moleculas/HCl/Gau-3602.inp" -scrdir="/home/montoya/Montoya/Moleculas/HCl/"
 Entering Link 1 = /opt/g16/l1.exe PID=      3604.
  
 Copyright (c) 1988-2017, Gaussian, Inc.  All Rights Reserved.
  
 This is part of the Gaussian(R) 16 program.  It is based on
 the Gaussian(R) 09 system (copyright 2009, Gaussian, Inc.),
 the Gaussian(R) 03 system (copyright 2003, Gaussian, Inc.),
 the Gaussian(R) 98 system (copyright 1998, Gaussian, Inc.),
 the Gaussian(R) 94 system (copyright 1995, Gaussian, Inc.),
 the Gaussian 92(TM) system (copyright 1992, Gaussian, Inc.),
 the Gaussian 90(TM) system (copyright 1990, Gaussian, Inc.),
 the Gaussian 88(TM) system (copyright 1988, Gaussian, Inc.),
 the Gaussian 86(TM) system (copyright 1986, Carnegie Mellon
 University), and the Gaussian 82(TM) system (copyright 1983,
 Carnegie Mellon University). Gaussian is a federally registered
 trademark of Gaussian, Inc.
  
 This software contains proprietary and confidential information,
 including trade secrets, belonging to Gaussian, Inc.
  
 This software is provided under written license and may be
 used, copied, transmitted, or stored only in accord with that
 written license.
  
 The following legend is applicable only to US Government
 contracts under FAR:
  
                    RESTRICTED RIGHTS LEGEND
  
 Use, reproduction and disclosure by the US Government is
 subject to restrictions as set forth in subparagraphs (a)
 and (c) of the Commercial Computer Software - Restricted
 Rights clause in FAR 52.227-19.
  
 Gaussian, Inc.
 340 Quinnipiac St., Bldg. 40, Wallingford CT 06492
  
  
 ---------------------------------------------------------------
 Warning -- This program may not be used in any manner that
 competes with the business of Gaussian, Inc. or will provide
 assistance to any competitor of Gaussian, Inc.  The licensee
 of this program is prohibited from giving any competitor of
 Gaussian, Inc. access to this program.  By using this program,
 the user acknowledges that Gaussian, Inc. is engaged in the
 business of creating and licensing software in the field of
 computational chemistry and represents and warrants to the
 licensee that it is not a competitor of Gaussian, Inc. and that
 it will not use this program in any manner prohibited above.
 ---------------------------------------------------------------
  

 Cite this work as:
 Gaussian 16, Revision B.01,
 M. J. Frisch, G. W. Trucks, H. B. Schlegel, G. E. Scuseria, 
 M. A. Robb, J. R. Cheeseman, G. Scalmani, V. Barone, 
 G. A. Petersson, H. Nakatsuji, X. Li, M. Caricato, A. V. Marenich, 
 J. Bloino, B. G. Janesko, R. Gomperts, B. Mennucci, H. P. Hratchian, 
 J. V. Ortiz, A. F. Izmaylov, J. L. Sonnenberg, D. Williams-Young, 
 F. Ding, F. Lipparini, F. Egidi, J. Goings, B. Peng, A. Petrone, 
 T. Henderson, D. Ranasinghe, V. G. Zakrzewski, J. Gao, N. Rega, 
 G. Zheng, W. Liang, M. Hada, M. Ehara, K. Toyota, R. Fukuda, 
 J. Hasegawa, M. Ishida, T. Nakajima, Y. Honda, O. Kitao, H. Nakai, 
 T. Vreven, K. Throssell, J. A. Montgomery, Jr., J. E. Peralta, 
 F. Ogliaro, M. J. Bearpark, J. J. Heyd, E. N. Brothers, K. N. Kudin, 
 V. N. Staroverov, T. A. Keith, R. Kobayashi, J. Normand, 
 K. Raghavachari, A. P. Rendell, J. C. Burant, S. S. Iyengar, 
 J. Tomasi, M. Cossi, J. M. Millam, M. Klene, C. Adamo, R. Cammi, 
 J. W. Ochterski, R. L. Martin, K. Morokuma, O. Farkas, 
 J. B. Foresman, and D. J. Fox, Gaussian, Inc., Wallingford CT, 2016.
 
 ******************************************
 Gaussian 16:  EM64L-G16RevB.01 20-Dec-2017
                11-Feb-2019 
 ******************************************
 %Chk=HCl.chk
 --------------------------------
 #n B3LYP/6-31+G(d,p) Opt Pop=NPA
 --------------------------------
 1/18=20,19=15,26=3,38=1/1,3;
 2/9=110,12=2,17=6,18=5,40=1/2;
 3/5=1,6=6,7=111,11=2,25=1,30=1,71=1,74=-5/1,2,3;
 4//1;
 5/5=2,38=5/2;
 6/7=2,8=2,9=2,10=2,28=1,40=-1/1,7;
 7//1,2,3,16;
 1/18=20,19=15,26=3/3(2);
 2/9=110/2;
 99//99;
 2/9=110/2;
 3/5=1,6=6,7=111,11=2,25=1,30=1,71=1,74=-5/1,2,3;
 4/5=5,16=3,69=1/1;
 5/5=2,38=5/2;
 7//1,2,3,16;
 1/18=20,19=15,26=3/3(-5);
 2/9=110/2;
 6/7=2,8=2,9=2,10=2,19=2,28=1,40=-1/1,7;
 99/9=1/99;
 ---
 HCl
 ---
 Symbolic Z-matrix:
 Charge =  0 Multiplicity = 1
 Cl                   -3.32284   0.57708  -0.66849 
 H                    -1.94719   0.57708  -0.66849 
 

 GradGradGradGradGradGradGradGradGradGradGradGradGradGradGradGradGradGrad
 Berny optimization.
 Initialization pass.
                           ----------------------------
                           !    Initial Parameters    !
                           ! (Angstroms and Degrees)  !
 --------------------------                            --------------------------
 ! Name  Definition              Value          Derivative Info.                !
 --------------------------------------------------------------------------------
 ! R1    R(1,2)                  1.3757         estimate D2E/DX2                !
 --------------------------------------------------------------------------------
 Trust Radius=3.00D-01 FncErr=1.00D-07 GrdErr=1.00D-06 EigMax=2.50D+02 EigMin=1.00D-04
 Number of steps in this run=     20 maximum allowed number of steps=    100.
 GradGradGradGradGradGradGradGradGradGradGradGradGradGradGradGradGradGrad

                          Input orientation:                          
 ---------------------------------------------------------------------
 Center     Atomic      Atomic             Coordinates (Angstroms)
 Number     Number       Type             X           Y           Z
 ---------------------------------------------------------------------
      1         17           0       -3.322840    0.577080   -0.668490
      2          1           0       -1.947190    0.577080   -0.668490
 ---------------------------------------------------------------------
 Stoichiometry    ClH
 Framework group  C*V[C*(HCl)]
 Deg. of freedom     1
 Full point group                 C*V     NOp   4
 Largest Abelian subgroup         C2V     NOp   4
 Largest concise Abelian subgroup C1      NOp   1
                         Standard orientation:                         
 ---------------------------------------------------------------------
 Center     Atomic      Atomic             Coordinates (Angstroms)
 Number     Number       Type             X           Y           Z
 ---------------------------------------------------------------------
      1         17           0        0.000000    0.000000    0.076425
      2          1           0        0.000000    0.000000   -1.299225
 ---------------------------------------------------------------------
 Rotational constants (GHZ):           0.0000000         272.6188138         272.6188138
 Standard basis: 6-31+G(d,p) (6D, 7F)
 There are    15 symmetry adapted cartesian basis functions of A1  symmetry.
 There are     1 symmetry adapted cartesian basis functions of A2  symmetry.
 There are     6 symmetry adapted cartesian basis functions of B1  symmetry.
 There are     6 symmetry adapted cartesian basis functions of B2  symmetry.
 There are    15 symmetry adapted basis functions of A1  symmetry.
 There are     1 symmetry adapted basis functions of A2  symmetry.
 There are     6 symmetry adapted basis functions of B1  symmetry.
 There are     6 symmetry adapted basis functions of B2  symmetry.
    28 basis functions,    63 primitive gaussians,    28 cartesian basis functions
     9 alpha electrons        9 beta electrons
       nuclear repulsion energy         6.5394632251 Hartrees.
 NAtoms=    2 NActive=    2 NUniq=    2 SFac= 1.00D+00 NAtFMM=   60 NAOKFM=F Big=F
 Integral buffers will be    131072 words long.
 Raffenetti 2 integral format.
 Two-electron integral symmetry is turned on.
 One-electron integrals computed using PRISM.
 NBasis=    28 RedAO= T EigKep=  1.95D-02  NBF=    15     1     6     6
 NBsUse=    28 1.00D-06 EigRej= -1.00D+00 NBFU=    15     1     6     6
 ExpMin= 4.83D-02 ExpMax= 2.52D+04 ExpMxC= 3.78D+03 IAcc=3 IRadAn=         5 AccDes= 0.00D+00
 Harris functional with IExCor=  402 and IRadAn=       5 diagonalized for initial guess.
 HarFok:  IExCor=  402 AccDes= 0.00D+00 IRadAn=         5 IDoV= 1 UseB2=F ITyADJ=14
 ICtDFT=  3500011 ScaDFX=  1.000000  1.000000  1.000000  1.000000
 FoFCou: FMM=F IPFlag=           0 FMFlag=      100000 FMFlg1=           0
         NFxFlg=           0 DoJE=T BraDBF=F KetDBF=T FulRan=T
         wScrn=  0.000000 ICntrl=       500 IOpCl=  0 I1Cent=   200000004 NGrid=           0
         NMat0=    1 NMatS0=      1 NMatT0=    0 NMatD0=    1 NMtDS0=    0 NMtDT0=    0
 Petite list used in FoFCou.
 Initial guess orbital symmetries:
       Occupied  (SG) (SG) (SG) (PI) (PI) (SG) (SG) (PI) (PI)
       Virtual   (SG) (SG) (SG) (PI) (PI) (SG) (SG) (PI) (PI) (SG)
                 (PI) (PI) (DLTA) (DLTA) (SG) (PI) (PI) (SG) (SG)
 The electronic state of the initial guess is 1-SG.
 Keep R1 ints in memory in symmetry-blocked form, NReq=948354.
 Requested convergence on RMS density matrix=1.00D-08 within 128 cycles.
 Requested convergence on MAX density matrix=1.00D-06.
 Requested convergence on             energy=1.00D-06.
 No special actions if energy rises.
 SCF Done:  E(RB3LYP) =  -460.799330416     A.U. after    8 cycles
            NFock=  8  Conv=0.13D-08     -V/T= 2.0034

 **********************************************************************

            Population analysis using the SCF Density.

 **********************************************************************

 Orbital symmetries:
       Occupied  (SG) (SG) (SG) (PI) (PI) (SG) (SG) (PI) (PI)
       Virtual   (SG) (SG) (SG) (PI) (PI) (SG) (SG) (PI) (PI) (SG)
                 (PI) (PI) (DLTA) (DLTA) (SG) (PI) (PI) (SG) (SG)
 The electronic state is 1-SG.
 Alpha  occ. eigenvalues -- -101.56870  -9.48268  -7.24714  -7.23682  -7.23682
 Alpha  occ. eigenvalues --   -0.84119  -0.46861  -0.33586  -0.33586
 Alpha virt. eigenvalues --   -0.03583   0.05507   0.07014   0.07597   0.07597
 Alpha virt. eigenvalues --    0.53304   0.58977   0.59982   0.59982   0.72407
 Alpha virt. eigenvalues --    0.80496   0.80496   0.85918   0.85918   1.13473
 Alpha virt. eigenvalues --    2.02252   2.02252   2.59730   4.29142
          Condensed to atoms (all electrons):
               1          2
     1  Cl  16.936059   0.253114
     2  H    0.253114   0.557713
 Mulliken charges:
               1
     1  Cl  -0.189173
     2  H    0.189173
 Sum of Mulliken charges =   0.00000
 Mulliken charges with hydrogens summed into heavy atoms:
               1
     1  Cl   0.000000
 Electronic spatial extent (au):  <R**2>=             35.2770
 Charge=              0.0000 electrons
 Dipole moment (field-independent basis, Debye):
    X=              0.0000    Y=              0.0000    Z=             -1.5291  Tot=              1.5291
 Quadrupole moment (field-independent basis, Debye-Ang):
   XX=            -14.2956   YY=            -14.2956   ZZ=            -10.2730
   XY=              0.0000   XZ=              0.0000   YZ=              0.0000
 Traceless Quadrupole moment (field-independent basis, Debye-Ang):
   XX=             -1.3409   YY=             -1.3409   ZZ=              2.6817
   XY=              0.0000   XZ=              0.0000   YZ=              0.0000
 Octapole moment (field-independent basis, Debye-Ang**2):
  XXX=              0.0000  YYY=              0.0000  ZZZ=             -3.0297  XYY=              0.0000
  XXY=              0.0000  XXZ=             -0.2644  XZZ=              0.0000  YZZ=              0.0000
  YYZ=             -0.2644  XYZ=              0.0000
 Hexadecapole moment (field-independent basis, Debye-Ang**3):
 XXXX=            -17.7221 YYYY=            -17.7221 ZZZZ=            -15.3311 XXXY=              0.0000
 XXXZ=              0.0000 YYYX=              0.0000 YYYZ=              0.0000 ZZZX=              0.0000
 ZZZY=              0.0000 XXYY=             -5.9074 XXZZ=             -6.3241 YYZZ=             -6.3241
 XXYZ=              0.0000 YYXZ=              0.0000 ZZXY=              0.0000
 N-N= 6.539463225123D+00 E-N=-1.108055890434D+03  KE= 4.592328447175D+02
 Symmetry A1   KE= 3.678351325483D+02
 Symmetry A2   KE=-1.031880474527D-50
 Symmetry B1   KE= 4.569885608459D+01
 Symmetry B2   KE= 4.569885608459D+01
 ******************************Gaussian NBO Version 3.1******************************
             N A T U R A L   A T O M I C   O R B I T A L   A N D
          N A T U R A L   B O N D   O R B I T A L   A N A L Y S I S
 ******************************Gaussian NBO Version 3.1******************************
       /RESON  / : Allow strongly delocalized NBO set

 Analyzing the SCF density

 Job title: HCl                                                             

 Storage needed:      2626 in NPA ( 104857572 available)
 GSVD:  LWork=         504 too small for GESVD, short by         266 words or         266 for optimal perf.
 GSVD:  LWork=          70 too small for GESVD, short by        1358 words or        1358 for optimal perf.


 NATURAL POPULATIONS:  Natural atomic orbital occupancies 
                                                          
   NAO  Atom  No  lang   Type(AO)    Occupancy      Energy
 ----------------------------------------------------------
     1   Cl    1  S      Cor( 1S)     2.00000    -100.32212
     2   Cl    1  S      Cor( 2S)     1.99987     -10.51408
     3   Cl    1  S      Val( 3S)     1.90747      -0.97186
     4   Cl    1  S      Ryd( 5S)     0.00091       0.41840
     5   Cl    1  S      Ryd( 4S)     0.00000       0.30579
     6   Cl    1  S      Ryd( 6S)     0.00000       4.25383
     7   Cl    1  px     Cor( 2p)     2.00000      -7.23387
     8   Cl    1  px     Val( 3p)     1.99844      -0.33791
     9   Cl    1  px     Ryd( 4p)     0.00048       0.31734
    10   Cl    1  px     Ryd( 5p)     0.00000       0.36264
    11   Cl    1  py     Cor( 2p)     2.00000      -7.23387
    12   Cl    1  py     Val( 3p)     1.99844      -0.33791
    13   Cl    1  py     Ryd( 4p)     0.00048       0.31734
    14   Cl    1  py     Ryd( 5p)     0.00000       0.36264
    15   Cl    1  pz     Cor( 2p)     1.99996      -7.24318
    16   Cl    1  pz     Val( 3p)     1.38187      -0.31239
    17   Cl    1  pz     Ryd( 4p)     0.00289       0.36574
    18   Cl    1  pz     Ryd( 5p)     0.00000       0.38145
    19   Cl    1  dxy    Ryd( 3d)     0.00000       0.85918
    20   Cl    1  dxz    Ryd( 3d)     0.00061       0.86131
    21   Cl    1  dyz    Ryd( 3d)     0.00061       0.86131
    22   Cl    1  dx2y2  Ryd( 3d)     0.00000       0.85918
    23   Cl    1  dz2    Ryd( 3d)     0.00768       1.10428

    24    H    2  S      Val( 1S)     0.69702      -0.14357
    25    H    2  S      Ryd( 2S)     0.00043       0.59346
    26    H    2  px     Ryd( 2p)     0.00047       1.96109
    27    H    2  py     Ryd( 2p)     0.00047       1.96109
    28    H    2  pz     Ryd( 2p)     0.00191       2.43562

 WARNING:  Population inversion found on atom Cl    1


 Summary of Natural Population Analysis:                  
                                                          
                                       Natural Population 
                Natural  -----------------------------------------------
    Atom  No    Charge         Core      Valence    Rydberg      Total
 -----------------------------------------------------------------------
     Cl    1   -0.29972      9.99982     7.28624    0.01366    17.29972
      H    2    0.29972      0.00000     0.69702    0.00327     0.70028
 =======================================================================
   * Total *    0.00000      9.99982     7.98325    0.01693    18.00000

                                 Natural Population      
 --------------------------------------------------------
   Core                       9.99982 ( 99.9982% of  10)
   Valence                    7.98325 ( 99.7906% of   8)
   Natural Minimal Basis     17.98307 ( 99.9060% of  18)
   Natural Rydberg Basis      0.01693 (  0.0940% of  18)
 --------------------------------------------------------

    Atom  No          Natural Electron Configuration
 ----------------------------------------------------------------------------
     Cl    1      [core]3S( 1.91)3p( 5.38)3d( 0.01)
      H    2            1S( 0.70)


 NBO analysis skipped by request.
 Calling FoFJK, ICntrl=      2127 FMM=F ISym2X=1 I1Cent= 0 IOpClX= 0 NMat=1 NMatS=1 NMatT=0.
 ***** Axes restored to original set *****
 -------------------------------------------------------------------
 Center     Atomic                   Forces (Hartrees/Bohr)
 Number     Number              X              Y              Z
 -------------------------------------------------------------------
      1       17           0.042591606   -0.000000000   -0.000000000
      2        1          -0.042591606   -0.000000000   -0.000000000
 -------------------------------------------------------------------
 Cartesian Forces:  Max     0.042591606 RMS     0.024590275

 GradGradGradGradGradGradGradGradGradGradGradGradGradGradGradGradGradGrad
 Berny optimization.
 FormGI is forming the generalized inverse of G from B-inverse, IUseBI=4.
 Internal  Forces:  Max     0.042591606 RMS     0.042591606
 Search for a local minimum.
 Step number   1 out of a maximum of   20
 All quantities printed in internal units (Hartrees-Bohrs-Radians)
 Mixed Optimization -- RFO/linear search
 Second derivative matrix not updated -- first step.
 The second derivative matrix:
                          R1
           R1           0.23764
 ITU=  0
     Eigenvalues ---    0.23764
 RFO step:  Lambda=-7.40309738D-03 EMin= 2.37635542D-01
 Linear search not attempted -- first point.
 Iteration  1 RMS(Cart)=  0.12290639 RMS(Int)=  0.00000000
 Iteration  2 RMS(Cart)=  0.00000000 RMS(Int)=  0.00000000
 ClnCor:  largest displacement from symmetrization is 0.00D+00 for atom     0.
 Variable       Old X    -DE/DX   Delta X   Delta X   Delta X     New X
                                 (Linear)    (Quad)   (Total)
    R1        2.59960  -0.04259   0.00000  -0.17382  -0.17382   2.42579
         Item               Value     Threshold  Converged?
 Maximum Force            0.042592     0.000450     NO 
 RMS     Force            0.042592     0.000300     NO 
 Maximum Displacement     0.086908     0.001800     NO 
 RMS     Displacement     0.122906     0.001200     NO 
 Predicted change in Energy=-3.813380D-03
 GradGradGradGradGradGradGradGradGradGradGradGradGradGradGradGradGradGrad

                          Input orientation:                          
 ---------------------------------------------------------------------
 Center     Atomic      Atomic             Coordinates (Angstroms)
 Number     Number       Type             X           Y           Z
 ---------------------------------------------------------------------
      1         17           0       -3.276850    0.577080   -0.668490
      2          1           0       -1.993180    0.577080   -0.668490
 ---------------------------------------------------------------------
 Stoichiometry    ClH
 Framework group  C*V[C*(HCl)]
 Deg. of freedom     1
 Full point group                 C*V     NOp   4
 Largest Abelian subgroup         C2V     NOp   4
 Largest concise Abelian subgroup C1      NOp   1
                         Standard orientation:                         
 ---------------------------------------------------------------------
 Center     Atomic      Atomic             Coordinates (Angstroms)
 Number     Number       Type             X           Y           Z
 ---------------------------------------------------------------------
      1         17           0        0.000000    0.000000    0.071315
      2          1           0        0.000000    0.000000   -1.212356
 ---------------------------------------------------------------------
 Rotational constants (GHZ):           0.0000000         313.0866433         313.0866433
 Standard basis: 6-31+G(d,p) (6D, 7F)
 There are    15 symmetry adapted cartesian basis functions of A1  symmetry.
 There are     1 symmetry adapted cartesian basis functions of A2  symmetry.
 There are     6 symmetry adapted cartesian basis functions of B1  symmetry.
 There are     6 symmetry adapted cartesian basis functions of B2  symmetry.
 There are    15 symmetry adapted basis functions of A1  symmetry.
 There are     1 symmetry adapted basis functions of A2  symmetry.
 There are     6 symmetry adapted basis functions of B1  symmetry.
 There are     6 symmetry adapted basis functions of B2  symmetry.
    28 basis functions,    63 primitive gaussians,    28 cartesian basis functions
     9 alpha electrons        9 beta electrons
       nuclear repulsion energy         7.0080381951 Hartrees.
 NAtoms=    2 NActive=    2 NUniq=    2 SFac= 1.00D+00 NAtFMM=   60 NAOKFM=F Big=F
 Integral buffers will be    131072 words long.
 Raffenetti 2 integral format.
 Two-electron integral symmetry is turned on.
 One-electron integrals computed using PRISM.
 NBasis=    28 RedAO= T EigKep=  1.93D-02  NBF=    15     1     6     6
 NBsUse=    28 1.00D-06 EigRej= -1.00D+00 NBFU=    15     1     6     6
 Initial guess from the checkpoint file:  "HCl.chk"
 B after Tr=     0.000000    0.000000    0.000000
         Rot=    1.000000    0.000000    0.000000    0.000000 Ang=   0.00 deg.
 Initial guess orbital symmetries:
       Occupied  (SG) (SG) (SG) (PI) (PI) (SG) (SG) (PI) (PI)
       Virtual   (SG) (SG) (SG) (PI) (PI) (SG) (SG) (PI) (PI) (SG)
                 (PI) (PI) (DLTA) (DLTA) (SG) (PI) (PI) (SG) (SG)
 ExpMin= 4.83D-02 ExpMax= 2.52D+04 ExpMxC= 3.78D+03 IAcc=3 IRadAn=         5 AccDes= 0.00D+00
 Harris functional with IExCor=  402 and IRadAn=       5 diagonalized for initial guess.
 HarFok:  IExCor=  402 AccDes= 0.00D+00 IRadAn=         5 IDoV= 1 UseB2=F ITyADJ=14
 ICtDFT=  3500011 ScaDFX=  1.000000  1.000000  1.000000  1.000000
 FoFCou: FMM=F IPFlag=           0 FMFlag=      100000 FMFlg1=           0
         NFxFlg=           0 DoJE=T BraDBF=F KetDBF=T FulRan=T
         wScrn=  0.000000 ICntrl=       500 IOpCl=  0 I1Cent=   200000004 NGrid=           0
         NMat0=    1 NMatS0=      1 NMatT0=    0 NMatD0=    1 NMtDS0=    0 NMtDT0=    0
 Petite list used in FoFCou.
 Keep R1 ints in memory in symmetry-blocked form, NReq=948354.
 Requested convergence on RMS density matrix=1.00D-08 within 128 cycles.
 Requested convergence on MAX density matrix=1.00D-06.
 Requested convergence on             energy=1.00D-06.
 No special actions if energy rises.
 SCF Done:  E(RB3LYP) =  -460.803202537     A.U. after    8 cycles
            NFock=  8  Conv=0.16D-08     -V/T= 2.0032
 Calling FoFJK, ICntrl=      2127 FMM=F ISym2X=1 I1Cent= 0 IOpClX= 0 NMat=1 NMatS=1 NMatT=0.
 ***** Axes restored to original set *****
 -------------------------------------------------------------------
 Center     Atomic                   Forces (Hartrees/Bohr)
 Number     Number              X              Y              Z
 -------------------------------------------------------------------
      1       17          -0.001951004   -0.000000000   -0.000000000
      2        1           0.001951004   -0.000000000   -0.000000000
 -------------------------------------------------------------------
 Cartesian Forces:  Max     0.001951004 RMS     0.001126413

 GradGradGradGradGradGradGradGradGradGradGradGradGradGradGradGradGradGrad
 Berny optimization.
 Using GEDIIS/GDIIS optimizer.
 Internal  Forces:  Max     0.001951004 RMS     0.001951004
 Search for a local minimum.
 Step number   2 out of a maximum of   20
 All quantities printed in internal units (Hartrees-Bohrs-Radians)
 Mixed Optimization -- RFO/linear search
 Update second derivatives using D2CorX and points    1    2
 DE= -3.87D-03 DEPred=-3.81D-03 R= 1.02D+00
 TightC=F SS=  1.41D+00  RLast= 1.74D-01 DXNew= 5.0454D-01 5.2145D-01
 Trust test= 1.02D+00 RLast= 1.74D-01 DXMaxT set to 5.05D-01
 The second derivative matrix:
                          R1
           R1           0.25626
 ITU=  1  0
 Use linear search instead of GDIIS.
     Eigenvalues ---    0.25626
 RFO step:  Lambda= 0.00000000D+00 EMin= 2.56263186D-01
 Quartic linear search produced a step of -0.03463.
 Iteration  1 RMS(Cart)=  0.00425589 RMS(Int)=  0.00000000
 Iteration  2 RMS(Cart)=  0.00000000 RMS(Int)=  0.00000000
 ClnCor:  largest displacement from symmetrization is 0.00D+00 for atom     0.
 Variable       Old X    -DE/DX   Delta X   Delta X   Delta X     New X
                                 (Linear)    (Quad)   (Total)
    R1        2.42579   0.00195   0.00602  -0.00000   0.00602   2.43180
         Item               Value     Threshold  Converged?
 Maximum Force            0.001951     0.000450     NO 
 RMS     Force            0.001951     0.000300     NO 
 Maximum Displacement     0.003009     0.001800     NO 
 RMS     Displacement     0.004256     0.001200     NO 
 Predicted change in Energy=-7.100994D-06
 GradGradGradGradGradGradGradGradGradGradGradGradGradGradGradGradGradGrad

                          Input orientation:                          
 ---------------------------------------------------------------------
 Center     Atomic      Atomic             Coordinates (Angstroms)
 Number     Number       Type             X           Y           Z
 ---------------------------------------------------------------------
      1         17           0       -3.278443    0.577080   -0.668490
      2          1           0       -1.991587    0.577080   -0.668490
 ---------------------------------------------------------------------
 Stoichiometry    ClH
 Framework group  C*V[C*(HCl)]
 Deg. of freedom     1
 Full point group                 C*V     NOp   4
 Largest Abelian subgroup         C2V     NOp   4
 Largest concise Abelian subgroup C1      NOp   1
                         Standard orientation:                         
 ---------------------------------------------------------------------
 Center     Atomic      Atomic             Coordinates (Angstroms)
 Number     Number       Type             X           Y           Z
 ---------------------------------------------------------------------
      1         17           0        0.000000    0.000000    0.071492
      2          1           0        0.000000    0.000000   -1.215364
 ---------------------------------------------------------------------
 Rotational constants (GHZ):           0.0000000         311.5387752         311.5387752
 Standard basis: 6-31+G(d,p) (6D, 7F)
 There are    15 symmetry adapted cartesian basis functions of A1  symmetry.
 There are     1 symmetry adapted cartesian basis functions of A2  symmetry.
 There are     6 symmetry adapted cartesian basis functions of B1  symmetry.
 There are     6 symmetry adapted cartesian basis functions of B2  symmetry.
 There are    15 symmetry adapted basis functions of A1  symmetry.
 There are     1 symmetry adapted basis functions of A2  symmetry.
 There are     6 symmetry adapted basis functions of B1  symmetry.
 There are     6 symmetry adapted basis functions of B2  symmetry.
    28 basis functions,    63 primitive gaussians,    28 cartesian basis functions
     9 alpha electrons        9 beta electrons
       nuclear repulsion energy         6.9906932221 Hartrees.
 NAtoms=    2 NActive=    2 NUniq=    2 SFac= 1.00D+00 NAtFMM=   60 NAOKFM=F Big=F
 Integral buffers will be    131072 words long.
 Raffenetti 2 integral format.
 Two-electron integral symmetry is turned on.
 One-electron integrals computed using PRISM.
 NBasis=    28 RedAO= T EigKep=  1.93D-02  NBF=    15     1     6     6
 NBsUse=    28 1.00D-06 EigRej= -1.00D+00 NBFU=    15     1     6     6
 Initial guess from the checkpoint file:  "HCl.chk"
 B after Tr=     0.000000    0.000000   -0.000000
         Rot=    1.000000    0.000000    0.000000    0.000000 Ang=   0.00 deg.
 Initial guess orbital symmetries:
       Occupied  (SG) (SG) (SG) (PI) (PI) (SG) (SG) (PI) (PI)
       Virtual   (SG) (SG) (SG) (PI) (PI) (SG) (SG) (PI) (PI) (SG)
                 (PI) (PI) (DLTA) (DLTA) (SG) (PI) (PI) (SG) (SG)
 Keep R1 ints in memory in symmetry-blocked form, NReq=948354.
 Requested convergence on RMS density matrix=1.00D-08 within 128 cycles.
 Requested convergence on MAX density matrix=1.00D-06.
 Requested convergence on             energy=1.00D-06.
 No special actions if energy rises.
 SCF Done:  E(RB3LYP) =  -460.803208363     A.U. after    7 cycles
            NFock=  7  Conv=0.13D-08     -V/T= 2.0032
 Calling FoFJK, ICntrl=      2127 FMM=F ISym2X=1 I1Cent= 0 IOpClX= 0 NMat=1 NMatS=1 NMatT=0.
 ***** Axes restored to original set *****
 -------------------------------------------------------------------
 Center     Atomic                   Forces (Hartrees/Bohr)
 Number     Number              X              Y              Z
 -------------------------------------------------------------------
      1       17           0.000009032   -0.000000000   -0.000000000
      2        1          -0.000009032   -0.000000000   -0.000000000
 -------------------------------------------------------------------
 Cartesian Forces:  Max     0.000009032 RMS     0.000005215

 GradGradGradGradGradGradGradGradGradGradGradGradGradGradGradGradGradGrad
 Berny optimization.
 Using GEDIIS/GDIIS optimizer.
 Internal  Forces:  Max     0.000009032 RMS     0.000009032
 Search for a local minimum.
 Step number   3 out of a maximum of   20
 All quantities printed in internal units (Hartrees-Bohrs-Radians)
 Mixed Optimization -- En-DIIS/RFO-DIIS
 Update second derivatives using D2CorX and points    2    3
 DE= -5.83D-06 DEPred=-7.10D-06 R= 8.21D-01
 TightC=F SS=  1.41D+00  RLast= 6.02D-03 DXNew= 8.4853D-01 1.8056D-02
 Trust test= 8.21D-01 RLast= 6.02D-03 DXMaxT set to 5.05D-01
 The second derivative matrix:
                          R1
           R1           0.32566
 ITU=  1  1
 Use linear search instead of GDIIS.
     Eigenvalues ---    0.32566
 RFO step:  Lambda= 0.00000000D+00 EMin= 3.25655452D-01
 Quartic linear search produced a step of -0.00465.
 Iteration  1 RMS(Cart)=  0.00001978 RMS(Int)=  0.00000000
 Iteration  2 RMS(Cart)=  0.00000000 RMS(Int)=  0.00000000
 ClnCor:  largest displacement from symmetrization is 0.00D+00 for atom     0.
 Variable       Old X    -DE/DX   Delta X   Delta X   Delta X     New X
                                 (Linear)    (Quad)   (Total)
    R1        2.43180  -0.00001  -0.00003   0.00000  -0.00003   2.43178
         Item               Value     Threshold  Converged?
 Maximum Force            0.000009     0.000450     YES
 RMS     Force            0.000009     0.000300     YES
 Maximum Displacement     0.000014     0.001800     YES
 RMS     Displacement     0.000020     0.001200     YES
 Predicted change in Energy=-1.252461D-10
 Optimization completed.
    -- Stationary point found.
                           ----------------------------
                           !   Optimized Parameters   !
                           ! (Angstroms and Degrees)  !
 --------------------------                            --------------------------
 ! Name  Definition              Value          Derivative Info.                !
 --------------------------------------------------------------------------------
 ! R1    R(1,2)                  1.2869         -DE/DX =    0.0                 !
 --------------------------------------------------------------------------------
 GradGradGradGradGradGradGradGradGradGradGradGradGradGradGradGradGradGrad

                          Input orientation:                          
 ---------------------------------------------------------------------
 Center     Atomic      Atomic             Coordinates (Angstroms)
 Number     Number       Type             X           Y           Z
 ---------------------------------------------------------------------
      1         17           0       -3.278443    0.577080   -0.668490
      2          1           0       -1.991587    0.577080   -0.668490
 ---------------------------------------------------------------------
 Stoichiometry    ClH
 Framework group  C*V[C*(HCl)]
 Deg. of freedom     1
 Full point group                 C*V     NOp   4
 Largest Abelian subgroup         C2V     NOp   4
 Largest concise Abelian subgroup C1      NOp   1
                         Standard orientation:                         
 ---------------------------------------------------------------------
 Center     Atomic      Atomic             Coordinates (Angstroms)
 Number     Number       Type             X           Y           Z
 ---------------------------------------------------------------------
      1         17           0        0.000000    0.000000    0.071492
      2          1           0        0.000000    0.000000   -1.215364
 ---------------------------------------------------------------------
 Rotational constants (GHZ):           0.0000000         311.5387752         311.5387752

 **********************************************************************

            Population analysis using the SCF Density.

 **********************************************************************

 Orbital symmetries:
       Occupied  (SG) (SG) (SG) (PI) (PI) (SG) (SG) (PI) (PI)
       Virtual   (SG) (SG) (SG) (PI) (PI) (SG) (SG) (PI) (PI) (SG)
                 (PI) (PI) (DLTA) (DLTA) (SG) (PI) (PI) (SG) (SG)
 The electronic state is 1-SG.
 Alpha  occ. eigenvalues -- -101.56534  -9.48111  -7.24518  -7.23522  -7.23522
 Alpha  occ. eigenvalues --   -0.85375  -0.47975  -0.33781  -0.33781
 Alpha virt. eigenvalues --   -0.01554   0.06256   0.07024   0.07592   0.07592
 Alpha virt. eigenvalues --    0.52962   0.58943   0.59936   0.59936   0.71801
 Alpha virt. eigenvalues --    0.79375   0.79375   0.85783   0.85783   1.21325
 Alpha virt. eigenvalues --    2.05669   2.05669   2.75175   4.30774
          Condensed to atoms (all electrons):
               1          2
     1  Cl  16.922535   0.259449
     2  H    0.259449   0.558566
 Mulliken charges:
               1
     1  Cl  -0.181984
     2  H    0.181984
 Sum of Mulliken charges =  -0.00000
 Mulliken charges with hydrogens summed into heavy atoms:
               1
     1  Cl  -0.000000
 Electronic spatial extent (au):  <R**2>=             34.4696
 Charge=              0.0000 electrons
 Dipole moment (field-independent basis, Debye):
    X=              0.0000    Y=              0.0000    Z=             -1.4674  Tot=              1.4674
 Quadrupole moment (field-independent basis, Debye-Ang):
   XX=            -14.1874   YY=            -14.1874   ZZ=            -10.4757
   XY=              0.0000   XZ=              0.0000   YZ=              0.0000
 Traceless Quadrupole moment (field-independent basis, Debye-Ang):
   XX=             -1.2372   YY=             -1.2372   ZZ=              2.4745
   XY=              0.0000   XZ=              0.0000   YZ=              0.0000
 Octapole moment (field-independent basis, Debye-Ang**2):
  XXX=              0.0000  YYY=              0.0000  ZZZ=             -2.6511  XYY=              0.0000
  XXY=              0.0000  XXZ=             -0.3526  XZZ=              0.0000  YZZ=              0.0000
  YYZ=             -0.3526  XYZ=              0.0000
 Hexadecapole moment (field-independent basis, Debye-Ang**3):
 XXXX=            -17.5095 YYYY=            -17.5095 ZZZZ=            -15.0029 XXXY=              0.0000
 XXXZ=              0.0000 YYYX=              0.0000 YYYZ=              0.0000 ZZZX=              0.0000
 ZZZY=              0.0000 XXYY=             -5.8365 XXZZ=             -6.0280 YYZZ=             -6.0280
 XXYZ=              0.0000 YYXZ=              0.0000 ZZXY=              0.0000
 N-N= 6.990693222106D+00 E-N=-1.109024171548D+03  KE= 4.593413507887D+02
 Symmetry A1   KE= 3.679458017703D+02
 Symmetry A2   KE=-2.063760949054D-50
 Symmetry B1   KE= 4.569777450923D+01
 Symmetry B2   KE= 4.569777450923D+01
 ******************************Gaussian NBO Version 3.1******************************
             N A T U R A L   A T O M I C   O R B I T A L   A N D
          N A T U R A L   B O N D   O R B I T A L   A N A L Y S I S
 ******************************Gaussian NBO Version 3.1******************************
       /RESON  / : Allow strongly delocalized NBO set

 Analyzing the SCF density

 Job title: HCl                                                             

 Storage needed:      2626 in NPA ( 104857572 available)
 GSVD:  LWork=         504 too small for GESVD, short by         266 words or         266 for optimal perf.
 GSVD:  LWork=          70 too small for GESVD, short by        1358 words or        1358 for optimal perf.


 NATURAL POPULATIONS:  Natural atomic orbital occupancies 
                                                          
   NAO  Atom  No  lang   Type(AO)    Occupancy      Energy
 ----------------------------------------------------------
     1   Cl    1  S      Cor( 1S)     2.00000    -100.27883
     2   Cl    1  S      Cor( 2S)     1.99983     -10.53938
     3   Cl    1  S      Val( 3S)     1.88666      -0.97086
     4   Cl    1  S      Ryd( 4S)     0.00135       0.42508
     5   Cl    1  S      Ryd( 5S)     0.00000       0.43556
     6   Cl    1  S      Ryd( 6S)     0.00000       4.12887
     7   Cl    1  px     Cor( 2p)     2.00000      -7.23119
     8   Cl    1  px     Val( 3p)     1.99794      -0.34062
     9   Cl    1  px     Ryd( 5p)     0.00059       0.33997
    10   Cl    1  px     Ryd( 4p)     0.00000       0.33822
    11   Cl    1  py     Cor( 2p)     2.00000      -7.23119
    12   Cl    1  py     Val( 3p)     1.99794      -0.34062
    13   Cl    1  py     Ryd( 5p)     0.00059       0.33997
    14   Cl    1  py     Ryd( 4p)     0.00000       0.33822
    15   Cl    1  pz     Cor( 2p)     1.99994      -7.23985
    16   Cl    1  pz     Val( 3p)     1.39016      -0.30546
    17   Cl    1  pz     Ryd( 5p)     0.00352       0.39610
    18   Cl    1  pz     Ryd( 4p)     0.00000       0.35535
    19   Cl    1  dxy    Ryd( 3d)     0.00000       0.85783
    20   Cl    1  dxz    Ryd( 3d)     0.00080       0.87436
    21   Cl    1  dyz    Ryd( 3d)     0.00080       0.87436
    22   Cl    1  dx2y2  Ryd( 3d)     0.00000       0.85783
    23   Cl    1  dz2    Ryd( 3d)     0.00823       1.19195

    24    H    2  S      Val( 1S)     0.70754      -0.10652
    25    H    2  S      Ryd( 2S)     0.00052       0.53936
    26    H    2  px     Ryd( 2p)     0.00067       1.97197
    27    H    2  py     Ryd( 2p)     0.00067       1.97197
    28    H    2  pz     Ryd( 2p)     0.00224       2.57057

 WARNING:  Population inversion found on atom Cl    1


 Summary of Natural Population Analysis:                  
                                                          
                                       Natural Population 
                Natural  -----------------------------------------------
    Atom  No    Charge         Core      Valence    Rydberg      Total
 -----------------------------------------------------------------------
     Cl    1   -0.28836      9.99977     7.27271    0.01588    17.28836
      H    2    0.28836      0.00000     0.70754    0.00410     0.71164
 =======================================================================
   * Total *    0.00000      9.99977     7.98025    0.01998    18.00000

                                 Natural Population      
 --------------------------------------------------------
   Core                       9.99977 ( 99.9977% of  10)
   Valence                    7.98025 ( 99.7531% of   8)
   Natural Minimal Basis     17.98002 ( 99.8890% of  18)
   Natural Rydberg Basis      0.01998 (  0.1110% of  18)
 --------------------------------------------------------

    Atom  No          Natural Electron Configuration
 ----------------------------------------------------------------------------
     Cl    1      [core]3S( 1.89)3p( 5.39)3d( 0.01)
      H    2            1S( 0.71)


 NBO analysis skipped by request.
 1\1\GINC-DYME\FOpt\RB3LYP\6-31+G(d,p)\Cl1H1\MONTOYA\11-Feb-2019\0\\#n 
 B3LYP/6-31+G(d,p) Opt Pop=NPA\\HCl\\0,1\Cl,-3.2784427903,0.57708,-0.66
 849\H,-1.9915872097,0.57708,-0.66849\\Version=EM64L-G16RevB.01\State=1
 -SG\HF=-460.8032084\RMSD=1.304e-09\RMSF=5.215e-06\Dipole=0.5773013,0.,
 0.\Quadrupole=1.839722,-0.919861,-0.919861,0.,0.,0.\PG=C*V [C*(H1Cl1)]
 \\@


 Sometimes the fool who rushes in gets the job done.
                                    -- Al Bernstein
 Job cpu time:       0 days  0 hours  0 minutes  8.7 seconds.
 Elapsed time:       0 days  0 hours  0 minutes  9.0 seconds.
 File lengths (MBytes):  RWF=     17 Int=      0 D2E=      0 Chk=      2 Scr=      2
 Normal termination of Gaussian 16 at Mon Feb 11 12:11:29 2019.
